
                                 *****************
                                 * O   R   C   A *
                                 *****************

                                            #,                                       
                                            ###                                      
                                            ####                                     
                                            #####                                    
                                            ######                                   
                                           ########,                                 
                                     ,,################,,,,,                         
                               ,,#################################,,                 
                          ,,##########################################,,             
                       ,#########################################, ''#####,          
                    ,#############################################,,   '####,        
                  ,##################################################,,,,####,       
                ,###########''''           ''''###############################       
              ,#####''   ,,,,##########,,,,          '''####'''          '####       
            ,##' ,,,,###########################,,,                        '##       
           ' ,,###''''                  '''############,,,                           
         ,,##''                                '''############,,,,        ,,,,,,###''
      ,#''                                            '''#######################'''  
     '                                                          ''''####''''         
             ,#######,   #######,   ,#######,      ##                                
            ,#'     '#,  ##    ##  ,#'     '#,    #''#        ,####,    ,#,          
            ##       ##  ##   ,#'  ##            #'  '#       #'       ,# #          
            ##       ##  #######   ##           ,######,      #####,      #          
            '#,     ,#'  ##    ##  '#,     ,#' ,#      #,     #,   #      #          
             '#######'   ##     ##  '#######'  #'      '#     '####' #    #          



                #########################################################
                #                        -***-                          #
                #          Department of theory and spectroscopy        #
                #                                                       #
                #                      Frank Neese                      #
                #                                                       #
                #     Directorship, Architecture, Infrastructure        #
                #                    SHARK, DRIVERS                     #
                #        Core code/Algorithms in most modules           #
                #                                                       #
                #        Max Planck Institute fuer Kohlenforschung      #
                #                Kaiser Wilhelm Platz 1                 #
                #                 D-45470 Muelheim/Ruhr                 #
                #                      Germany                          #
                #                                                       #
                #                  All rights reserved                  #
                #                        -***-                          #
                #########################################################


                         Program Version 6.1.1  -  RELEASE   -
                                (GIT: $487d211cc3$)
                          ($2025-11-21 10:33:24 +0100$)


 With contributions from (in alphabetic order):
[Max-Planck-Institut fuer Kohlenforschung]                               
  Daniel Aravena         : Magnetic Suceptibility                        
  Michael Atanasov       : Ab Initio Ligand Field Theory (pilot matlab implementation)
  Alexander A. Auer      : GIAO ZORA, VPT2 properties, NMR spectrum      
  Ute Becker             : All parallelization in ORCA, NUMFREQ, NUMCALC 
  Giovanni Bistoni       : ED, misc. LED, open-shell LED, HFLD           
  Dmytro Bykov           : pre 5.0 version of the SCF Hessian            
  Marcos Casanova-Páez   : Triplet and SCS-CIS(D). UHF-(DLPNO)-IP/EA/STEOM-CCSD. UHF-CVS-IP/STEOM-CCSD   
  Vijay G. Chilkuri      : MRCI spin determinant printing, contributions to CSF-ICE 
  Pauline Colinet        : FMM embedding                                 
  Dipayan Datta          : RHF DLPNO-CCSD density                        
  Achintya Kumar Dutta   : EOM-CC, STEOM-CC                              
  Nicolas Foglia         : Exact transition moments, OPA infrastructure, MCD improvements    
  Dmitry Ganyushin       : Spin-Orbit,Spin-Spin,Magnetic field MRCI      
  Miquel Garcia-Rates    : C-PCM and meta-GGA Hessian, CCSD/C-PCM, Gaussian charge scheme 
  Tiago L. C. Gouveia    : GS-ROHF, GS-ROCIS                             
  Yang Guo               : DLPNO-NEVPT2, F12-NEVPT2, CIM, IAO-localization        
  Andreas Hansen         : Spin unrestricted coupled pair/coupled cluster methods 
  Ingolf Harden          : AUTO-CI MPn and infrastructure                
  Benjamin Helmich-Paris : MC-RPA, TRAH-(SCF,CASSCF), AVAS, COSX integrals, SCF dyn. polar., MC-PDFT, srDFT 
  Lee Huntington         : MR-EOM, pCC                                   
  Robert Izsak           : Overlap fitted RIJCOSX, COSX-SCS-MP3, EOM     
  Riya Kayal             : Wick's Theorem for AUTO-CI, AUTO-CI UHF-CCSDT 
  Emily Kempfer          : AUTO-CI RHF CISDT and CCSDT, approximate NEVPT4
  Christian Kollmar      : KDIIS, OOCD, Brueckner-CCSD(T), CCSD density, CASPT2, CASPT2-K, improved NEVPT2 
  Axel Koslowski         : Symmetry handling                             
  Simone Kossmann        : meta-GGA functionals, TD-DFT gradient, OOMP2, (MP2 Hessian; deprecated post 5.0) 
  Lucas Lang             : DCDCAS, Hyperfine gauge corrections, ICE-SOC+SSC
  Marvin Lechner         : AUTO-CI (C++ implementation), FIC-MRCC        
  Spencer Leger          : CASSCF response                               
  Dagmar Lenk            : GEPOL surface, SMD, ORCA-2-JSON               
  Dimitrios Liakos       : Extrapolation schemes; Compound Job, Property file
  Dimitrios Manganas     : Further ROCIS development; embedding schemes. LFT, Crystal Embedding 
  Dimitrios Pantazis     : SARC Basis sets                               
  Anastasios Papadopoulos: AUTO-CI, single reference methods and gradients 
  Taras Petrenko         : pre 6.0 DFT Hessian and TD-DFT gradient,  ECA, NRVS 
  Petra Pikulova         : Analytic Raman intensities                    
  Peter Pinski           : DLPNO-MP2, DLPNO-MP2 Gradient                 
  Shashank Vittal Rao    : ES-AILFT, MagRelax                            
  Christoph Reimann      : Effective Core Potentials                     
  Marius Retegan         : Local ZFS, SOC                                
  Christoph Riplinger    : Optimizer, TS searches, QM/MM, DLPNO-CCSD(T), (RO)-DLPNO pert. Triples 
  Michael Roemelt        : Original ROCIS implementation, recursive CI coupling coefficients
  Masaaki Saitow         : Open-shell DLPNO-CCSD energy and density      
  Barbara Sandhoefer     : DKH picture change effects                    
  Yorick L. A. Schmerwitz: GMF and freeze-and-release deltaSCF, NEB S-IDPP initial path                    
  Kantharuban Sivalingam : CASSCF convergence/infrastructure, NEVPT2, NEVPT3, NEVPT4(SD), FIC-MRCI and CEPA variants
  Bernardo de Souza      : ESD, SOC TD-DFT                               
  Georgi L. Stoychev     : AutoAux, RI-MP2 NMR, DLPNO-MP2 response, X2C  
  Van Anh Tran           : RI-MP2 g-tensors                              
  Willem Van den Heuvel  : Paramagnetic NMR                              
  Zikuan Wang            : NOTCH, Electric field optimization            
  Frank Wennmohs         : Technical directorship and infrastructure     
  Hang Xu                : AUTO-CI-Response properties                   
                                                                         
[FACCTs GmbH]                                                            
  Markus Bursch, Nicolas Foglia, Miquel Garcia-Rates, Ingolf Harden, Hagen Neugebauer, Anastasios Papadopoulos, 
  Christoph Riplinger, Bernardo de Souza, Georgi L. Stoychev                                                    
                                                                 
  APM, various basis sets, CI-OPT, improved COSX, DLPNO-Multilevel,           
  DOCKER, DRACO, updates on ESD, Fragmentator, GOAT, IRC, LR-CPCM, L-BFGS, MBIS, meta-GGA TD-DFT gradient, ML-optimized integration grids, 
  MM, NACMEs, nearIR, NEB, NEB-TS, NL-DFT gradient (VV10), 2- and 3-layer-ONIOM, interface openCOSMO-RS, QMMM,   
  Crystal-QMMM, RESP, rigid body optimization, SF, symmetry and pop. for TD-DFT, various functionals, SOLVATOR                                   
                                                                         
[Other institutions]                                                     
  V. Asgeirsson          : NEB                                           
  Christoph Bannwarth    : sTDA-DFT, sTD-DFT, PBEh-3c, B97-3c, D3        
  Giovanni Bistoni       : ETS/NOCV, ADLD/ADEX, COVALED                  
  Martin Brehm           : Molecular dynamics                            
  Ronald Cardenas        : ETS/NOCV                                      
  Martina Colucci        : COVALED                                       
  Sebastian Ehlert       : rSCAN, r2SCAN, r2SCAN-3c, D4, dhf basis sets  
  Marvin Friede          : D4 for Fr, Ra, Ac-Lr                          
  Lars Goerigk           : TD-DFT with DH, B97 family of functionals     
  Stefan Grimme          : VdW corrections, initial TS optimization, DFT functionals, gCP, sTDA/sTD-DF 
  Waldemar Hujo          : DFT-NL                                        
  H. Jonsson             : NEB                                           
  Holger Kruse           : gCP                                           
  Marcel Mueller         : wB97X-3c, vDZP basis set                      
  Hagen Neugebauer       : wr2SCAN, Native XTB                           
  Gianluca Regni         : ADLD/ADEX                                     
  Tobias Risthaus        : pre 6.0 range-separated hybrid DFT and stability analysis
  Lukas Wittmann         : regularized MP2, r2SCAN double-hybrids, wr2SCAN        
                                                                         
We gratefully acknowledge several colleagues who have allowed us to      
interface, adapt or use parts of their codes:                            
  Ed Valeev, F. Pavosevic, A. Kumar             : LibInt (2-el integral package), F12 methods 
  Garnet Chan, S. Sharma, J. Yang, R. Olivares  : DMRG                   
  Ulf Ekstrom                                   : XCFun DFT Library      
  Mihaly Kallay                                 : mrcc  (arbitrary order and MRCC methods)
  Frank Weinhold                                : gennbo (NPA and NBO analysis)           
  Simon Mueller                                 : openCOSMO-RS                            
  Christopher J. Cramer and Donald G. Truhlar   : smd solvation model                     
  S Lehtola, MJT Oliveira, MAL Marques          : LibXC Library                           
  Liviu Ungur et al                             : ANISO software                          


 Your calculation uses the libint2 library for the computation of 2-el integrals
 For citations please refer to: http://libint.valeyev.net

 Your ORCA version has been built with support for libXC version: 7.0.0
 For citations please refer to: https://libxc.gitlab.io

 This ORCA versions uses:
   CBLAS   interface :  Fast vector & matrix operations
   LAPACKE interface :  Fast linear algebra routines
   SCALAPACK package :  Parallel linear algebra routines
   Shared memory     :  Shared parallel matrices


  ***********************************
  * Starting time: Tue Jul 14 11:23:41 2026
  * Host name:     Angzes-MacBook-Pro.local
  * Process ID:    10609
  * Working dir.:  /Users/liangze/Desktop/Tsinghua 2026 Summer/pdi_h2o2_production/pdi-theory-demo/calculations/pdi/electronic_structure_calculation
  ***********************************

NOTE: MaxCore=3000 MB was set to SCF,MP2,MDCI,CIPSI,MRCI,RASCI and CIS
      => If you want to overwrite this, your respective input block should be placed after the MaxCore statement


***************************************
The coordinates will be read from file: pdi_opt.xyz
***************************************


Your calculation utilizes the atom-pairwise dispersion correction
based on EEQ partial charges (D4)


Warning: RI is on but no J-basis has been assigned. Assigning Def2/J (nothing to worry about!)
================================================================================

----- Orbital basis set information -----
Your calculation utilizes the basis: def2-TZVP
   F. Weigend and R. Ahlrichs, Phys. Chem. Chem. Phys. 7, 3297 (2005).

----- AuxJ basis set information -----
Your calculation utilizes the auxiliary basis: def2/J
   H-Rn: F. Weigend, Phys. Chem. Chem. Phys. 8, 1057 (2006).
   Fr-Lr: K. Eichkorn, F. Weigend, O. Treutler, R. Ahlrichs; Theor. Chem. Acc. 97, 119 (1997).

================================================================================
                                        WARNINGS
                       Please study these warnings very carefully!
================================================================================


================================================================================
                                       INPUT FILE
================================================================================
NAME = pdi_sp.inp
|  1> ! wB97X-D4 def2-TZVP TightSCF RIJCOSX NoSym
|  2> 
|  3> %pal
|  4>   nprocs 8
|  5> end
|  6> 
|  7> %maxcore 3000
|  8> 
|  9> * xyzfile 0 1 pdi_opt.xyz
| 10> 
| 11>                          ****END OF INPUT****
================================================================================

                       ****************************
                       * Single Point Calculation *
                       ****************************

---------------------------------
CARTESIAN COORDINATES (ANGSTROEM)
---------------------------------
  C     -0.732487    1.243518    0.009067
  C      0.729438    1.242480   -0.001728
  C      1.425335   -0.001984    0.001697
  C      0.727539   -1.245233   -0.018503
  C     -0.734417   -1.244165   -0.011748
  C     -1.430298    0.000318   -0.013158
  C      1.471217    2.423611    0.002793
  C      2.862624    2.417097    0.003448
  C      3.557420    1.223028    0.000311
  C      2.852567   -0.003015   -0.007379
  C      3.555555   -1.230131   -0.014091
  C      2.858939   -2.423093   -0.024683
  C      1.467524   -2.427477   -0.026387
  C     -1.476214   -2.425255   -0.021914
  C     -2.867620   -2.418715   -0.023711
  C     -3.562399   -1.224658   -0.016114
  C     -2.857530    0.001336   -0.004086
  C     -3.560501    1.228435    0.006962
  C     -2.863868    2.421340    0.022025
  C     -1.472451    2.425715    0.022596
  C     -5.038848   -1.245910   -0.016658
  N     -5.649990    0.003507   -0.004712
  C     -5.036917    1.251970    0.007536
  C      5.033871    1.244304    0.000422
  N      5.645026   -0.005137   -0.006765
  C      5.031970   -1.253647   -0.014241
  O      5.700164    2.266134    0.006626
  O      5.696703   -2.276494   -0.020118
  O     -5.705155   -2.267697   -0.027028
  O     -5.701635    2.274793    0.017581
  H     -6.663771    0.004294   -0.004797
  H      6.658807   -0.005910   -0.006682
  H      0.971881    3.384589    0.002158
  H      3.424549    3.345904    0.006893
  H      3.419438   -3.352743   -0.031374
  H      0.966738   -3.387632   -0.037797
  H     -0.976906   -3.386244   -0.025166
  H     -3.429552   -3.347491   -0.031396
  H     -3.424358    3.350955    0.032956
  H     -0.971634    3.385798    0.037901

----------------------------
CARTESIAN COORDINATES (A.U.)
----------------------------
  NO LB      ZA    FRAG     MASS         X           Y           Z
   0 C     6.0000    0    12.011   -1.384201    2.349908    0.017135
   1 C     6.0000    0    12.011    1.378437    2.347947   -0.003266
   2 C     6.0000    0    12.011    2.693492   -0.003749    0.003206
   3 C     6.0000    0    12.011    1.374850   -2.353150   -0.034965
   4 C     6.0000    0    12.011   -1.387847   -2.351132   -0.022201
   5 C     6.0000    0    12.011   -2.702872    0.000601   -0.024865
   6 C     6.0000    0    12.011    2.780197    4.579960    0.005279
   7 C     6.0000    0    12.011    5.409576    4.567650    0.006516
   8 C     6.0000    0    12.011    6.722549    2.311188    0.000587
   9 C     6.0000    0    12.011    5.390571   -0.005697   -0.013944
  10 C     6.0000    0    12.011    6.719026   -2.324610   -0.026627
  11 C     6.0000    0    12.011    5.402612   -4.578981   -0.046644
  12 C     6.0000    0    12.011    2.773219   -4.587267   -0.049864
  13 C     6.0000    0    12.011   -2.789641   -4.583068   -0.041411
  14 C     6.0000    0    12.011   -5.419016   -4.570708   -0.044806
  15 C     6.0000    0    12.011   -6.731959   -2.314268   -0.030452
  16 C     6.0000    0    12.011   -5.399950    0.002524   -0.007721
  17 C     6.0000    0    12.011   -6.728371    2.321405    0.013156
  18 C     6.0000    0    12.011   -5.411925    4.575669    0.041621
  19 C     6.0000    0    12.011   -2.782530    4.583936    0.042701
  20 C     6.0000    0    12.011   -9.522042   -2.354428   -0.031479
  21 N     7.0000    0    14.007  -10.676934    0.006627   -0.008905
  22 C     6.0000    0    12.011   -9.518394    2.365881    0.014240
  23 C     6.0000    0    12.011    9.512638    2.351393    0.000797
  24 N     7.0000    0    14.007   10.667554   -0.009708   -0.012785
  25 C     6.0000    0    12.011    9.509045   -2.369049   -0.026912
  26 O     8.0000    0    15.999   10.771749    4.282373    0.012522
  27 O     8.0000    0    15.999   10.765209   -4.301950   -0.038017
  28 O     8.0000    0    15.999  -10.781181   -4.285326   -0.051076
  29 O     8.0000    0    15.999  -10.774529    4.298736    0.033223
  30 H     1.0000    0     1.008  -12.592701    0.008115   -0.009065
  31 H     1.0000    0     1.008   12.583321   -0.011168   -0.012627
  32 H     1.0000    0     1.008    1.836590    6.395947    0.004079
  33 H     1.0000    0     1.008    6.471459    6.322842    0.013026
  34 H     1.0000    0     1.008    6.461801   -6.335766   -0.059288
  35 H     1.0000    0     1.008    1.826869   -6.401697   -0.071426
  36 H     1.0000    0     1.008   -1.846085   -6.399073   -0.047557
  37 H     1.0000    0     1.008   -6.480914   -6.325842   -0.059330
  38 H     1.0000    0     1.008   -6.471098    6.332388    0.062278
  39 H     1.0000    0     1.008   -1.836122    6.398230    0.071623

--------------------------------
INTERNAL COORDINATES (ANGSTROEM)
--------------------------------
 C      0   0   0     0.000000000000     0.00000000     0.00000000
 C      1   0   0     1.461965169503     0.00000000     0.00000000
 C      2   1   0     1.425824509901   119.25219820     0.00000000
 C      3   2   1     1.425831352761   121.47634032     1.59808806
 C      4   3   2     1.461972232788   119.25436578   358.58342509
 C      1   2   3     1.425825827817   119.25260883   358.34453573
 C      2   1   3     1.394749429768   122.08639828   180.87923469
 C      7   2   1     1.391422680036   121.86152762   179.46786196
 C      8   7   2     1.381503008195   120.46200751   359.96488015
 C      9   8   7     1.414233553325   119.91168710     0.17673467
 C     10   9   8     1.414231577681   120.29875946   179.83799976
 C     11  10   9     1.381500831192   119.91130356   180.14846457
 C     12  11  10     1.391422584451   120.46246822   359.88397004
 C      5   4   3     1.394754771157   122.08588900   180.41984543
 C     14   5   4     1.391422017798   121.86168366   180.40184408
 C     15  14   5     1.381501592221   120.46192979     0.03668585
 C     16  15  14     1.414229691301   119.91163267   359.89015053
 C     17  16  15     1.414234936991   120.29883050   180.15053769
 C     18  17  16     1.381501821770   119.91138819   179.83964160
 C     19  18  17     1.391423191986   120.46253672     0.18320091
 C     16  15  14     1.476601547806   119.36833707   180.06962722
 N     21  16  15     1.390927560518   115.23937471   179.81940943
 C     22  21  16     1.390924028237   127.78301421     0.00000000
 C      9   8   7     1.476604703621   119.36826542   179.97035953
 N     24   9   8     1.390922046151   115.23928265   180.17758640
 C     25  24   9     1.390924433679   127.78308075     0.00000000
 O     24   9   8     1.219886187095   123.93178980     0.19661566
 O     26  25  24     1.219885716155   120.82911856   179.99821669
 O     21  16  15     1.219886050301   123.93183951   359.80053833
 O     23  22  21     1.219883771124   120.82920256   180.01683838
 H     22  21  16     1.013780720214   116.10863453   180.00881616
 H     25  24   9     1.013780822289   116.10851749   180.00600254
 H      7   2   1     1.082966475186   120.41293171   359.23617627
 H      8   7   2     1.085566306931   120.90545699   179.99384229
 H     12  11  10     1.085565796889   118.63292875   179.89846528
 H     13  12  11     1.082965659543   117.72483890   179.82329874
 H     14   5   4     1.082967299495   120.41365349     0.61990530
 H     15  14   5     1.085565778377   120.90532384   180.01721415
 H     19  18  17     1.085566114867   118.63272811   180.15929065
 H     20  19  18     1.082964362970   117.72584605   180.19147050

---------------------------
INTERNAL COORDINATES (A.U.)
---------------------------
 C      0   0   0     0.000000000000     0.00000000     0.00000000
 C      1   0   0     2.762713787692     0.00000000     0.00000000
 C      2   1   0     2.694417838745   119.25219820     0.00000000
 C      3   2   1     2.694430769878   121.47634032     1.59808806
 C      4   3   2     2.762727135367   119.25436578   358.58342509
 C      1   2   3     2.694420329246   119.25260883   358.34453573
 C      2   1   3     2.635694447704   122.08639828   180.87923469
 C      7   2   1     2.629407801795   121.86152762   179.46786196
 C      8   7   2     2.610662338677   120.46200751   359.96488015
 C      9   8   7     2.672514105187   119.91168710     0.17673467
 C     10   9   8     2.672510371761   120.29875946   179.83799976
 C     11  10   9     2.610658224738   119.91130356   180.14846457
 C     12  11  10     2.629407621165   120.46246822   359.88397004
 C      5   4   3     2.635704541467   122.08588900   180.41984543
 C     14   5   4     2.629406550346   121.86168366   180.40184408
 C     15  14   5     2.610659662874   120.46192979     0.03668585
 C     16  15  14     2.672506807020   119.91163267   359.89015053
 C     17  16  15     2.672516719937   120.29883050   180.15053769
 C     18  17  16     2.610660096659   119.91138819   179.83964160
 C     19  18  17     2.629408769240   120.46253672     0.18320091
 C     16  15  14     2.790372534277   119.36833707   180.06962722
 N     21  16  15     2.628472161503   115.23937471   179.81940943
 C     22  21  16     2.628465486459   127.78301421     0.00000000
 C      9   8   7     2.790378497904   119.36826542   179.97035953
 N     24   9   8     2.628461740858   115.23928265   180.17758640
 C     25  24   9     2.628466252633   127.78308075     0.00000000
 O     24   9   8     2.305250808162   123.93178980     0.19661566
 O     26  25  24     2.305249918216   120.82911856   179.99821669
 O     21  16  15     2.305250549659   123.93183951   359.80053833
 O     23  22  21     2.305246242640   120.82920256   180.01683838
 H     22  21  16     1.915767921055   116.10863453   180.00881616
 H     25  24   9     1.915768113947   116.10851749   180.00600254
 H      7   2   1     2.046510050319   120.41293171   359.23617627
 H      8   7   2     2.051423020313   120.90545699   179.99384229
 H     12  11  10     2.051422056472   118.63292875   179.89846528
 H     13  12  11     2.046508508979   117.72483890   179.82329874
 H     14   5   4     2.046511608039   120.41365349     0.61990530
 H     15  14   5     2.051422021490   120.90532384   180.01721415
 H     19  18  17     2.051422657363   118.63272811   180.15929065
 H     20  19  18     2.046506058811   117.72584605   180.19147050

---------------------
BASIS SET INFORMATION
---------------------
There are 4 groups of distinct atoms

 Group   1 Type C   : 11s6p2d1f contracted to 5s3p2d1f pattern {62111/411/11/1}
 Group   2 Type N   : 11s6p2d1f contracted to 5s3p2d1f pattern {62111/411/11/1}
 Group   3 Type O   : 11s6p2d1f contracted to 5s3p2d1f pattern {62111/411/11/1}
 Group   4 Type H   : 5s1p contracted to 3s1p pattern {311/1}

Atom   0C    basis set group =>   1
Atom   1C    basis set group =>   1
Atom   2C    basis set group =>   1
Atom   3C    basis set group =>   1
Atom   4C    basis set group =>   1
Atom   5C    basis set group =>   1
Atom   6C    basis set group =>   1
Atom   7C    basis set group =>   1
Atom   8C    basis set group =>   1
Atom   9C    basis set group =>   1
Atom  10C    basis set group =>   1
Atom  11C    basis set group =>   1
Atom  12C    basis set group =>   1
Atom  13C    basis set group =>   1
Atom  14C    basis set group =>   1
Atom  15C    basis set group =>   1
Atom  16C    basis set group =>   1
Atom  17C    basis set group =>   1
Atom  18C    basis set group =>   1
Atom  19C    basis set group =>   1
Atom  20C    basis set group =>   1
Atom  21N    basis set group =>   2
Atom  22C    basis set group =>   1
Atom  23C    basis set group =>   1
Atom  24N    basis set group =>   2
Atom  25C    basis set group =>   1
Atom  26O    basis set group =>   3
Atom  27O    basis set group =>   3
Atom  28O    basis set group =>   3
Atom  29O    basis set group =>   3
Atom  30H    basis set group =>   4
Atom  31H    basis set group =>   4
Atom  32H    basis set group =>   4
Atom  33H    basis set group =>   4
Atom  34H    basis set group =>   4
Atom  35H    basis set group =>   4
Atom  36H    basis set group =>   4
Atom  37H    basis set group =>   4
Atom  38H    basis set group =>   4
Atom  39H    basis set group =>   4
---------------------------------
AUXILIARY/J BASIS SET INFORMATION
---------------------------------
There are 4 groups of distinct atoms

 Group   1 Type C   : 12s5p4d2f1g contracted to 6s4p3d1f1g pattern {711111/2111/211/2/1}
 Group   2 Type N   : 12s5p4d2f1g contracted to 6s4p3d1f1g pattern {711111/2111/211/2/1}
 Group   3 Type O   : 12s5p4d2f1g contracted to 6s4p3d1f1g pattern {711111/2111/211/2/1}
 Group   4 Type H   : 5s2p1d contracted to 3s1p1d pattern {311/2/1}

Atom   0C    basis set group =>   1
Atom   1C    basis set group =>   1
Atom   2C    basis set group =>   1
Atom   3C    basis set group =>   1
Atom   4C    basis set group =>   1
Atom   5C    basis set group =>   1
Atom   6C    basis set group =>   1
Atom   7C    basis set group =>   1
Atom   8C    basis set group =>   1
Atom   9C    basis set group =>   1
Atom  10C    basis set group =>   1
Atom  11C    basis set group =>   1
Atom  12C    basis set group =>   1
Atom  13C    basis set group =>   1
Atom  14C    basis set group =>   1
Atom  15C    basis set group =>   1
Atom  16C    basis set group =>   1
Atom  17C    basis set group =>   1
Atom  18C    basis set group =>   1
Atom  19C    basis set group =>   1
Atom  20C    basis set group =>   1
Atom  21N    basis set group =>   2
Atom  22C    basis set group =>   1
Atom  23C    basis set group =>   1
Atom  24N    basis set group =>   2
Atom  25C    basis set group =>   1
Atom  26O    basis set group =>   3
Atom  27O    basis set group =>   3
Atom  28O    basis set group =>   3
Atom  29O    basis set group =>   3
Atom  30H    basis set group =>   4
Atom  31H    basis set group =>   4
Atom  32H    basis set group =>   4
Atom  33H    basis set group =>   4
Atom  34H    basis set group =>   4
Atom  35H    basis set group =>   4
Atom  36H    basis set group =>   4
Atom  37H    basis set group =>   4
Atom  38H    basis set group =>   4
Atom  39H    basis set group =>   4


           ************************************************************
           *        Program running with 8 parallel MPI-processes     *
           *              working on a common directory               *
           ************************************************************
------------------------------------------------------------------------------
                             ORCA STARTUP CALCULATIONS
                           -- RI-GTO INTEGRALS CHOSEN --
------------------------------------------------------------------------------
------------------------------------------------------------------------------
                   ___                                                        
                  /   \      - P O W E R E D   B Y -                         
                 /     \                                                     
                 |  |  |   _    _      __       _____    __    __             
                 |  |  |  | |  | |    /  \     |  _  \  |  |  /  |          
                  \  \/   | |  | |   /    \    | | | |  |  | /  /          
                 / \  \   | |__| |  /  /\  \   | |_| |  |  |/  /          
                |  |  |   |  __  | /  /__\  \  |    /   |      \           
                |  |  |   | |  | | |   __   |  |    \   |  |\   \          
                \     /   | |  | | |  |  |  |  | |\  \  |  | \   \       
                 \___/    |_|  |_| |__|  |__|  |_| \__\ |__|  \__/        
                                                                              
                      - O R C A' S   B I G   F R I E N D -                    
                                      &                                       
                       - I N T E G R A L  F E E D E R -                       
                                                                              
 v1 FN, 2020, v2 2021, v3 2022-2024                                           
------------------------------------------------------------------------------


----------------------
SHARK INTEGRAL PACKAGE
----------------------

Number of atoms                             ...     40
Number of basis functions                   ...    990
Number of shells                            ...    370
Maximum angular momentum                    ...      3
Integral batch strategy                     ... SHARK/LIBINT Hybrid
RI-J (if used) integral strategy            ... SPLIT-RIJ (Revised 2003 algorithm where possible)
Printlevel                                  ...      1
Contraction scheme used                     ... SEGMENTED contraction
Prescreening option                         ... SCHWARTZ
   Thresh                                   ... 2.500e-11
   Tcut                                     ... 2.500e-12
   Tpresel                                  ... 2.500e-12 
Coulomb Range Separation                    ... NOT USED
Exchange Range Separation                   ... Long Range
   Mu parameter                             ... 3.000e-01
   Scaling (regular/separated)              ... 1.670e-01 8.330e-01
Robust (split-)RI terms used:
  metric    (central integrals)             ... YES
  density   (r.h.s.  integrals)             ... YES
  potential (l.h.s.  integrals)             ... YES
Multipole approximations                    ... NOT USED
Finite Nucleus Model                        ... NOT USED
CABS basis                                  ... NOT available
Auxiliary Coulomb fitting basis             ... AVAILABLE
   # of basis functions in Aux-J            ...   1580
   # of shells in Aux-J                     ...    500
   Maximum angular momentum in Aux-J        ...      4
Auxiliary J/K fitting basis                 ... NOT available
Auxiliary Correlation fitting basis         ... NOT available
Auxiliary 'external' fitting basis          ... NOT available

Checking pre-screening integrals            ... done (  0.0 sec) Dimension = 370
   => SHARK Basis and OBASIS are compatible. Storing Pre-screening
Shell pair information
Shell pair cut-off parameter TPreSel        ...   2.5e-12
Total number of shell pairs                 ...     68635
Shell pairs after pre-screening             ...     44426
Total number of primitive shell pairs       ...    218820
Primitive shell pairs kept                  ...     92330
          la=0 lb=0:   9873 shell pairs
          la=1 lb=0:  12426 shell pairs
          la=1 lb=1:   3859 shell pairs
          la=2 lb=0:   6592 shell pairs
          la=2 lb=1:   4178 shell pairs
          la=2 lb=2:   1121 shell pairs
          la=3 lb=0:   3080 shell pairs
          la=3 lb=1:   1996 shell pairs
          la=3 lb=2:   1038 shell pairs
          la=3 lb=3:    263 shell pairs

Checking whether 4 symmetric matrices of dimension 990 fit in memory
:Max Core in MB      =   3000.00
 MB in use           =     46.66
 MB left             =   2953.34
 MB needed           =     14.97
 Data fit in memory  = YES
Calculating RI/J V-Matrix + Cholesky decomp.... done (  0.1 sec)
Calculating Nuclear repulsion               ... done (  0.0 sec) ENN=   2614.830735126149 Eh

Diagonalization of the overlap matrix:
Smallest eigenvalue                        ... 2.048e-06
Time for diagonalization                   ...    0.075 sec
Threshold for overlap eigenvalues          ... 1.000e-07
Number of eigenvalues below threshold      ... 0
Time for construction of square roots      ...    0.020 sec
Total time needed                          ...    0.104 sec

-------------------
DFT GRID GENERATION
-------------------

General Integration Accuracy     IntAcc      ... 4.388
Radial Grid Type                 RadialGrid  ... OptM3 with GC (2021)
Angular Grid (max. ang.)         AngularGrid ... 4 (Lebedev-302)
Angular grid pruning method      GridPruning ... 4 (adaptive)
Weight generation scheme         WeightScheme... mBecke (2022)
Basis function cutoff            BFCut       ... 1.0000e-11
Integration weight cutoff        WCut        ... 1.0000e-14
Partially contracted basis set               ... off
Rotationally invariant grid construction     ... off
Angular grids for H and He will be reduced by one unit

Total number of grid points                  ...   210217
Total number of batches                      ...     3305
Average number of points per batch           ...       63
Average number of grid points per atom       ...     5255

--------------------
COSX GRID GENERATION
--------------------

GRIDX 1
-------
General Integration Accuracy     IntAcc      ... 3.816
Radial Grid Type                 RadialGrid  ... OptM3 with GC (2021)
Angular Grid (max. ang.)         AngularGrid ... 1 (Lebedev-50)
Angular grid pruning method      GridPruning ... 4 (adaptive)
Weight generation scheme         WeightScheme... mBecke (2022)
Basis function cutoff            BFCut       ... 1.0000e-11
Integration weight cutoff        WCut        ... 1.0000e-14
Partially contracted basis set               ... on
Rotationally invariant grid construction     ... off
Angular grids for H and He will be reduced by one unit

Total number of grid points                  ...    26703
Total number of batches                      ...      226
Average number of points per batch           ...      118
Average number of grid points per atom       ...      668
UseSFitting                                  ... on

GRIDX 2
-------
General Integration Accuracy     IntAcc      ... 4.020
Radial Grid Type                 RadialGrid  ... OptM3 with GC (2021)
Angular Grid (max. ang.)         AngularGrid ... 2 (Lebedev-110)
Angular grid pruning method      GridPruning ... 4 (adaptive)
Weight generation scheme         WeightScheme... mBecke (2022)
Basis function cutoff            BFCut       ... 1.0000e-11
Integration weight cutoff        WCut        ... 1.0000e-14
Partially contracted basis set               ... on
Rotationally invariant grid construction     ... off
Angular grids for H and He will be reduced by one unit

Total number of grid points                  ...    59602
Total number of batches                      ...      483
Average number of points per batch           ...      123
Average number of grid points per atom       ...     1490
UseSFitting                                  ... on

GRIDX 3
-------
General Integration Accuracy     IntAcc      ... 4.338
Radial Grid Type                 RadialGrid  ... OptM3 with GC (2021)
Angular Grid (max. ang.)         AngularGrid ... 3 (Lebedev-194)
Angular grid pruning method      GridPruning ... 4 (adaptive)
Weight generation scheme         WeightScheme... mBecke (2022)
Basis function cutoff            BFCut       ... 1.0000e-11
Integration weight cutoff        WCut        ... 1.0000e-14
Partially contracted basis set               ... on
Rotationally invariant grid construction     ... off
Angular grids for H and He will be reduced by one unit

Total number of grid points                  ...   131285
Total number of batches                      ...     1045
Average number of points per batch           ...      125
Average number of grid points per atom       ...     3282
UseSFitting                                  ... on
Grids setup in   2.3 sec
Initializing property integral containers    ... done (  0.0 sec)

SHARK setup successfully completed in   2.9 seconds

Maximum memory used throughout the entire STARTUP-calculation: 92.1 MB


           ************************************************************
           *        Program running with 8 parallel MPI-processes     *
           *              working on a common directory               *
           ************************************************************
-------------------------------------------------------------------------------
                                 ORCA GUESS
                   Start orbitals & Density for SCF / CASSCF
-------------------------------------------------------------------------------

------------
SCF SETTINGS
------------
Hamiltonian:
 Density Functional     Method          .... DFT(GTOs)
 Exchange Functional    Exchange        .... WB97X-V
 Correlation Functional Correlation     .... WB97X-V
 Gradients option       PostSCFGGA      .... off
 Hybrid DFT is turned on
   Fraction HF Exchange ScalHFX         ....  0.167000
   Scaling of DF-GGA-X  ScalDFX         ....  0.000000
   Scaling of DF-GGA-C  ScalDFC         ....  1.000000
   Scaling of DF-LDA-C  ScalLDAC        ....  1.000000
   Perturbative correction              ....  0.000000
 Long-range corrected/Screened/Range-Separated Hybrid DFT is turned on
   Amount of maximum screened exact exchange              ....  0.833000
   Range separation parameter mu (erf(mu*r12)/r12)        ....  0.300000
 RI-approximation to the Coulomb term is turned on
   Number of AuxJ basis functions       .... 1580
   RIJ-COSX (HFX calculated with COS-X)).... on


General Settings:
 Integral files         IntName         .... pdi_sp
 Hartree-Fock type      HFTyp           .... RHF
 Total Charge           Charge          ....    0
 Multiplicity           Mult            ....    1
 Number of Electrons    NEL             ....  200
 Basis Dimension        Dim             ....  990
 Nuclear Repulsion      ENuc            ....   2614.8307351261 Eh

Convergence Acceleration:
 AO-DIIS                CNVDIIS         .... on
   Start iteration      DIISMaxIt       ....    12
   Startup error        DIISStart       ....  0.200000
   # of expansion vecs  DIISMaxEq       ....     5
   Bias factor          DIISBfac        ....   1.050
   Max. coefficient     DIISMaxC        ....  10.000
 MO-DIIS                CNVKDIIS        .... off
 Trust-Rad. Augm. Hess. CNVTRAH         .... auto
   Auto Start mean grad. ratio tolernc. ....  1.125000
   Auto Start start iteration           ....    50
   Auto Start num. interpolation iter.  ....    10
   Max. Number of Micro iterations      ....    24
   Max. Number of Macro iterations      .... Maxiter - #DIIS iter
   Number of Davidson start vectors     ....     2
   Converg. threshold    (grad. norm)   ....   1.000e-05
   Grad. Scal. Fac. for Micro threshold ....   0.100
   Minimum threshold for Micro iter.    ....   1.000e-02
   NR start threshold (gradient norm)   ....   1.000e-04
   Initial trust radius                 ....   0.400
   Minimum AH scaling param. (alpha)    ....   1.000
   Maximum AH scaling param. (alpha)    .... 1000.000
   Quad. conv. algorithm                .... NR
   White noise on init. David. guess    .... on
   Maximum white noise                  ....   0.010
   Pseudo random numbers                .... off
   Inactive MOs                         .... canonical
   Orbital update algorithm             .... Taylor
   Preconditioner                       .... Diag
   Full preconditioner red. dimension   ....   250
 SOSCF                 CNVSOSCF           .... on
   Start iteration     SOSCFMaxIt         ....   150
   Startup grad/error  SOSCFStart         ....  0.003300
   Hessian update      SOSCFHessUp        .... L-BFGS
   Autom. constraints  SOSCFAutoConstrain .... off
 Level Shifting         CNVShift        .... on
   Level shift para.    LevelShift      ....    0.2500
   Turn off err/grad.   ShiftErr        ....    0.0010
 Zerner damping         CNVZerner       .... off
 Static damping         CNVDamp         .... on
   Fraction old density DampFac         ....    0.7000
   Max. Damping (<1)    DampMax         ....    0.9800
   Min. Damping (>=0)   DampMin         ....    0.0000
   Turn off err/grad.   DampErr         ....    0.1000

SCF Procedure:
 Maximum # iterations   MaxIter         ....   125
 SCF integral mode      SCFMode         .... Direct
   Integral package                     .... SHARK and LIBINT hybrid scheme
 Reset frequency        DirectResetFreq ....    20
 Integral Threshold     Thresh          ....  2.500e-11 Eh
 Primitive CutOff       TCut            ....  2.500e-12 Eh

Convergence Tolerance:
 Convergence Check Mode ConvCheckMode   .... Total+1el-Energy
 Convergence forced     ConvForced      .... 0
 Energy Change          TolE            ....  1.000e-08 Eh
 1-El. energy change                    ....  1.000e-05 Eh
 Orbital Gradient       TolG            ....  1.000e-05
 Orbital Rotation angle TolX            ....  1.000e-05
 DIIS Error             TolErr          ....  5.000e-07

------------------------------
INITIAL GUESS: MODEL POTENTIAL
------------------------------
Loading Hartree-Fock densities                     ... done
Calculating cut-offs                               ... done
Initializing the effective Hamiltonian             ... done
Setting up the integral package (SHARK)            ... done
Starting the Coulomb interaction                   ... done (   0.3 sec)
Making the grid                                    ... done (   0.2 sec)
Mapping shells                                     ... done
Starting the XC term evaluation                    ... done (   0.2 sec)
  promolecular density results
     # of electrons  =    199.977289719
     EX              =   -117.073276184
     EC              =     -8.525338979
     EX+EC           =   -125.598615163
Transforming the Hamiltonian                       ... done (   0.0 sec)
Diagonalizing the Hamiltonian                      ... done (   0.1 sec)
Back transforming the eigenvectors                 ... done (   0.1 sec)
Now organizing SCF variables                       ... done
                      ------------------
                      INITIAL GUESS DONE (   1.0 sec)
                      ------------------
             **** ENERGY FILE WAS UPDATED (pdi_sp.en.tmp) ****
Finished Guess after   1.3 sec
Maximum memory used throughout the entire GUESS-calculation: 80.3 MB


           ************************************************************
           *        Program running with 8 parallel MPI-processes     *
           *              working on a common directory               *
           ************************************************************

-------------------------------------------------------------------------------------------
                                      ORCA LEAN-SCF
                              memory conserving SCF solver
-------------------------------------------------------------------------------------------

----------------------------------------D-I-I-S--------------------------------------------
Iteration    Energy (Eh)           Delta-E    RMSDP     MaxDP     DIISErr   Damp  Time(sec)
-------------------------------------------------------------------------------------------
               ***  Starting incremental Fock matrix formation  ***
    1    -1331.7625513156708621     0.00e+00  6.47e-03  1.94e-01  3.35e-01  0.700  16.8
    2    -1331.8379818733510547    -7.54e-02  5.83e-03  1.80e-01  2.34e-01  0.700   7.5
                               ***Turning on AO-DIIS***
    3    -1331.8813888543891153    -4.34e-02  4.76e-03  1.47e-01  1.62e-01  0.700  12.7
    4    -1331.9098690839196024    -2.85e-02  3.58e-03  1.09e-01  1.11e-01  0.700  11.9
    5    -1331.9303858922876316    -2.05e-02  2.67e-03  8.11e-02  7.79e-02  0.700  12.1
    6    -1331.9451435525206762    -1.48e-02  6.66e-03  2.01e-01  5.47e-02  0.000  12.5
                              *** Initializing SOSCF ***
---------------------------------------S-O-S-C-F--------------------------------------
Iteration    Energy (Eh)           Delta-E    RMSDP     MaxDP     MaxGrad    Time(sec)
--------------------------------------------------------------------------------------
    7    -1331.9804557195520829    -3.53e-02  4.92e-04  1.17e-02  2.54e-03    14.1
               *** Restarting incremental Fock matrix formation ***
    8    -1331.9805350645256112    -7.93e-05  1.68e-03  3.49e-02  1.78e-03    28.7
    9    -1331.9806024361805612    -6.74e-05  9.91e-04  2.03e-02  9.05e-04    21.4
   10    -1331.9806624650809681    -6.00e-05  8.19e-04  1.73e-02  1.50e-04    20.8
   11    -1331.9806639265716512    -1.46e-06  3.54e-04  7.47e-03  9.22e-05    20.1
   12    -1331.9806642790467777    -3.52e-07  2.44e-04  5.31e-03  5.20e-05    19.2
   13    -1331.9806643572374014    -7.82e-08  7.46e-05  1.51e-03  1.53e-05    18.0
   14    -1331.9806643332335625     2.40e-08  2.73e-05  6.12e-04  5.88e-06    18.1
   15    -1331.9806643681986316    -3.50e-08  2.10e-05  4.06e-04  2.19e-06    16.3
                  *** Gradient check signals convergence ***

               *****************************************************
               *                     SUCCESS                       *
               *           SCF CONVERGED AFTER  15 CYCLES          *
               *****************************************************

Recomputing exchange energy using gridx3       ... done (   53.216 sec)
Old exchange energy                            :    -55.293173384 Eh
New exchange energy                            :    -55.293067415 Eh
Exchange energy change after final integration :      0.000105968 Eh
Total energy after final integration           :  -1331.980558377 Eh
             **** ENERGY FILE WAS UPDATED (pdi_sp.en.tmp) ****

----------------
TOTAL SCF ENERGY
----------------

Total Energy       :      -1331.98055837665152 Eh          -36245.03366 eV

Components:
Nuclear Repulsion  :       2614.83073512614874 Eh           71153.16166 eV
Electronic Energy  :      -3946.81139947124802 Eh         -107398.19820 eV
One Electron Energy:      -7004.56360954247702 Eh         -190603.86593 eV
Two Electron Energy:       3057.75221007122900 Eh           83205.66773 eV

Virial components:
Potential Energy   :      -2658.35384435718970 Eh          -72337.48567 eV
Kinetic Energy     :       1326.37328598053841 Eh           36092.45202 eV
Virial Ratio       :          2.00422752211265

DFT components:
N(Alpha)           :      100.000115746349 electrons
N(Beta)            :      100.000115746349 electrons
N(Total)           :      200.000231492698 electrons
E(X)               :     -119.119347101202 Eh       
E(C)               :       -8.563832321493 Eh       
E(XC)              :     -127.683179422695 Eh       

---------------
SCF CONVERGENCE
---------------

  Last Energy change         ...    3.4965e-08  Tolerance :   1.0000e-08
  Last MAX-Density change    ...    4.0557e-04  Tolerance :   1.0000e-07
  Last RMS-Density change    ...    2.0974e-05  Tolerance :   5.0000e-09
  Last DIIS Error            ...    2.5365e-03  Tolerance :   5.0000e-07
  Last Orbital Gradient      ...    2.1937e-06  Tolerance :   1.0000e-05
  Last Orbital Rotation      ...    8.5681e-06  Tolerance :   1.0000e-05


----------------
ORBITAL ENERGIES
----------------

  NO   OCC          E(Eh)            E(eV) 
   0   2.0000     -19.212349      -522.7946 
   1   2.0000     -19.212349      -522.7946 
   2   2.0000     -19.212349      -522.7946 
   3   2.0000     -19.212348      -522.7946 
   4   2.0000     -14.474524      -393.8718 
   5   2.0000     -14.474523      -393.8718 
   6   2.0000     -10.412963      -283.3511 
   7   2.0000     -10.412963      -283.3511 
   8   2.0000     -10.412956      -283.3509 
   9   2.0000     -10.412955      -283.3509 
  10   2.0000     -10.336657      -281.2747 
  11   2.0000     -10.336643      -281.2743 
  12   2.0000     -10.336362      -281.2667 
  13   2.0000     -10.336331      -281.2659 
  14   2.0000     -10.332341      -281.1573 
  15   2.0000     -10.332334      -281.1571 
  16   2.0000     -10.330140      -281.0974 
  17   2.0000     -10.330121      -281.0969 
  18   2.0000     -10.319917      -280.8192 
  19   2.0000     -10.319916      -280.8192 
  20   2.0000     -10.319901      -280.8188 
  21   2.0000     -10.319894      -280.8186 
  22   2.0000     -10.317734      -280.7598 
  23   2.0000     -10.317733      -280.7598 
  24   2.0000     -10.317732      -280.7598 
  25   2.0000     -10.317727      -280.7596 
  26   2.0000     -10.315424      -280.6970 
  27   2.0000     -10.315422      -280.6969 
  28   2.0000     -10.315405      -280.6965 
  29   2.0000     -10.315400      -280.6963 
  30   2.0000      -1.213891       -33.0317 
  31   2.0000      -1.213887       -33.0316 
  32   2.0000      -1.193078       -32.4653 
  33   2.0000      -1.193077       -32.4653 
  34   2.0000      -1.089988       -29.6601 
  35   2.0000      -1.087642       -29.5962 
  36   2.0000      -1.076220       -29.2854 
  37   2.0000      -1.050248       -28.5787 
  38   2.0000      -1.020574       -27.7712 
  39   2.0000      -0.997849       -27.1529 
  40   2.0000      -0.995470       -27.0881 
  41   2.0000      -0.937447       -25.5092 
  42   2.0000      -0.937050       -25.4984 
  43   2.0000      -0.927634       -25.2422 
  44   2.0000      -0.913414       -24.8553 
  45   2.0000      -0.887474       -24.1494 
  46   2.0000      -0.842570       -22.9275 
  47   2.0000      -0.836100       -22.7514 
  48   2.0000      -0.806604       -21.9488 
  49   2.0000      -0.804953       -21.9039 
  50   2.0000      -0.784949       -21.3596 
  51   2.0000      -0.782878       -21.3032 
  52   2.0000      -0.767804       -20.8930 
  53   2.0000      -0.762745       -20.7553 
  54   2.0000      -0.714742       -19.4491 
  55   2.0000      -0.714457       -19.4414 
  56   2.0000      -0.687901       -18.7188 
  57   2.0000      -0.682339       -18.5674 
  58   2.0000      -0.670655       -18.2494 
  59   2.0000      -0.666665       -18.1409 
  60   2.0000      -0.641122       -17.4458 
  61   2.0000      -0.630224       -17.1493 
  62   2.0000      -0.620349       -16.8806 
  63   2.0000      -0.613455       -16.6930 
  64   2.0000      -0.607661       -16.5353 
  65   2.0000      -0.604132       -16.4393 
  66   2.0000      -0.603311       -16.4169 
  67   2.0000      -0.601099       -16.3567 
  68   2.0000      -0.586744       -15.9661 
  69   2.0000      -0.571621       -15.5546 
  70   2.0000      -0.571129       -15.5412 
  71   2.0000      -0.570564       -15.5258 
  72   2.0000      -0.569350       -15.4928 
  73   2.0000      -0.557133       -15.1604 
  74   2.0000      -0.554199       -15.0805 
  75   2.0000      -0.552840       -15.0435 
  76   2.0000      -0.535166       -14.5626 
  77   2.0000      -0.534126       -14.5343 
  78   2.0000      -0.533883       -14.5277 
  79   2.0000      -0.533311       -14.5121 
  80   2.0000      -0.530254       -14.4289 
  81   2.0000      -0.529266       -14.4021 
  82   2.0000      -0.514916       -14.0116 
  83   2.0000      -0.497411       -13.5352 
  84   2.0000      -0.490783       -13.3549 
  85   2.0000      -0.476403       -12.9636 
  86   2.0000      -0.462016       -12.5721 
  87   2.0000      -0.458988       -12.4897 
  88   2.0000      -0.458608       -12.4794 
  89   2.0000      -0.413198       -11.2437 
  90   2.0000      -0.412143       -11.2150 
  91   2.0000      -0.404269       -11.0007 
  92   2.0000      -0.404248       -11.0001 
  93   2.0000      -0.390207       -10.6181 
  94   2.0000      -0.390180       -10.6173 
  95   2.0000      -0.388296       -10.5661 
  96   2.0000      -0.382298       -10.4029 
  97   2.0000      -0.380378       -10.3506 
  98   2.0000      -0.375573       -10.2199 
  99   2.0000      -0.304087        -8.2746 
 100   0.0000      -0.082622        -2.2483 
 101   0.0000      -0.007245        -0.1971 
 102   0.0000      -0.001197        -0.0326 
 103   0.0000       0.009861         0.2683 
 104   0.0000       0.034974         0.9517 
 105   0.0000       0.059478         1.6185 
 106   0.0000       0.060791         1.6542 
 107   0.0000       0.095804         2.6069 
 108   0.0000       0.107145         2.9156 
 109   0.0000       0.115081         3.1315 
 110   0.0000       0.123511         3.3609 
*Only the first 10 virtual orbitals were printed.

                    ********************************
                    * MULLIKEN POPULATION ANALYSIS *
                    ********************************

-----------------------
MULLIKEN ATOMIC CHARGES
-----------------------
   0 C :    0.135326
   1 C :    0.136808
   2 C :   -0.037135
   3 C :    0.137166
   4 C :    0.138351
   5 C :   -0.037531
   6 C :   -0.174983
   7 C :   -0.171956
   8 C :    0.013868
   9 C :    0.055817
  10 C :    0.015133
  11 C :   -0.175678
  12 C :   -0.172410
  13 C :   -0.173475
  14 C :   -0.176951
  15 C :    0.021525
  16 C :    0.050972
  17 C :    0.018504
  18 C :   -0.174835
  19 C :   -0.172778
  20 C :    0.208499
  21 N :   -0.195218
  22 C :    0.207068
  23 C :    0.209785
  24 N :   -0.195883
  25 C :    0.209318
  26 O :   -0.322014
  27 O :   -0.321831
  28 O :   -0.321906
  29 O :   -0.321996
  30 H :    0.242289
  31 H :    0.242253
  32 H :    0.113282
  33 H :    0.162809
  34 H :    0.162171
  35 H :    0.113429
  36 H :    0.113419
  37 H :    0.162582
  38 H :    0.162640
  39 H :    0.113566
Sum of atomic charges:   -0.0000000

--------------------------------
MULLIKEN REDUCED ORBITAL CHARGES
--------------------------------
  0 C s       :     3.198590  s :     3.198590
      pz      :     0.910376  p :     2.517949
      px      :     0.771458
      py      :     0.836115
      dz2     :     0.004639  d :     0.138061
      dxz     :     0.024223
      dyz     :     0.025317
      dx2y2   :     0.041928
      dxy     :     0.041954
      f0      :     0.001813  f :     0.010074
      f+1     :     0.000773
      f-1     :     0.000653
      f+2     :     0.000783
      f-2     :     0.001058
      f+3     :     0.001541
      f-3     :     0.003454

  1 C s       :     3.196850  s :     3.196850
      pz      :     0.910648  p :     2.518164
      px      :     0.771580
      py      :     0.835935
      dz2     :     0.004629  d :     0.138104
      dxz     :     0.024221
      dyz     :     0.025322
      dx2y2   :     0.042011
      dxy     :     0.041922
      f0      :     0.001814  f :     0.010073
      f+1     :     0.000773
      f-1     :     0.000651
      f+2     :     0.000783
      f-2     :     0.001057
      f+3     :     0.001542
      f-3     :     0.003453

  2 C s       :     3.273367  s :     3.273367
      pz      :     0.961671  p :     2.606606
      px      :     0.798255
      py      :     0.846680
      dz2     :     0.003956  d :     0.146701
      dxz     :     0.021713
      dyz     :     0.023316
      dx2y2   :     0.049305
      dxy     :     0.048411
      f0      :     0.001891  f :     0.010460
      f+1     :     0.000734
      f-1     :     0.000755
      f+2     :     0.001043
      f-2     :     0.000877
      f+3     :     0.001586
      f-3     :     0.003575

  3 C s       :     3.196758  s :     3.196758
      pz      :     0.910668  p :     2.517681
      px      :     0.770923
      py      :     0.836090
      dz2     :     0.004663  d :     0.138322
      dxz     :     0.024223
      dyz     :     0.025322
      dx2y2   :     0.042086
      dxy     :     0.042028
      f0      :     0.001813  f :     0.010072
      f+1     :     0.000772
      f-1     :     0.000652
      f+2     :     0.000783
      f-2     :     0.001058
      f+3     :     0.001541
      f-3     :     0.003452

  4 C s       :     3.197133  s :     3.197133
      pz      :     0.910887  p :     2.516325
      px      :     0.769761
      py      :     0.835676
      dz2     :     0.004647  d :     0.138118
      dxz     :     0.024222
      dyz     :     0.025321
      dx2y2   :     0.042018
      dxy     :     0.041910
      f0      :     0.001814  f :     0.010073
      f+1     :     0.000773
      f-1     :     0.000651
      f+2     :     0.000783
      f-2     :     0.001057
      f+3     :     0.001543
      f-3     :     0.003452

  5 C s       :     3.271746  s :     3.271746
      pz      :     0.961676  p :     2.608462
      px      :     0.799810
      py      :     0.846975
      dz2     :     0.003992  d :     0.146866
      dxz     :     0.021714
      dyz     :     0.023311
      dx2y2   :     0.049327
      dxy     :     0.048522
      f0      :     0.001891  f :     0.010458
      f+1     :     0.000734
      f-1     :     0.000755
      f+2     :     0.001043
      f-2     :     0.000877
      f+3     :     0.001584
      f-3     :     0.003573

  6 C s       :     3.217411  s :     3.217411
      pz      :     0.971379  p :     2.869522
      px      :     0.943879
      py      :     0.954264
      dz2     :     0.004878  d :     0.080585
      dxz     :     0.018458
      dyz     :     0.008701
      dx2y2   :     0.020950
      dxy     :     0.027598
      f0      :     0.001590  f :     0.007465
      f+1     :     0.000606
      f-1     :     0.000618
      f+2     :     0.000712
      f-2     :     0.000502
      f+3     :     0.001136
      f-3     :     0.002302

  7 C s       :     3.222470  s :     3.222470
      pz      :     0.884716  p :     2.851573
      px      :     0.979665
      py      :     0.987192
      dz2     :     0.003628  d :     0.090262
      dxz     :     0.021486
      dyz     :     0.010856
      dx2y2   :     0.021433
      dxy     :     0.032859
      f0      :     0.001606  f :     0.007652
      f+1     :     0.000629
      f-1     :     0.000595
      f+2     :     0.000904
      f-2     :     0.000524
      f+3     :     0.001053
      f-3     :     0.002341

  8 C s       :     3.183945  s :     3.183945
      pz      :     1.002317  p :     2.671328
      px      :     0.848471
      py      :     0.820541
      dz2     :     0.007160  d :     0.120669
      dxz     :     0.013043
      dyz     :     0.025118
      dx2y2   :     0.046758
      dxy     :     0.028589
      f0      :     0.001863  f :     0.010189
      f+1     :     0.000884
      f-1     :     0.000686
      f+2     :     0.000527
      f-2     :     0.001041
      f+3     :     0.001515
      f-3     :     0.003674

  9 C s       :     3.267173  s :     3.267173
      pz      :     0.913734  p :     2.502288
      px      :     0.775056
      py      :     0.813499
      dz2     :     0.003890  d :     0.163915
      dxz     :     0.024718
      dyz     :     0.026669
      dx2y2   :     0.053053
      dxy     :     0.055585
      f0      :     0.001912  f :     0.010807
      f+1     :     0.000723
      f-1     :     0.000713
      f+2     :     0.001086
      f-2     :     0.001047
      f+3     :     0.001563
      f-3     :     0.003763

 10 C s       :     3.181814  s :     3.181814
      pz      :     1.002442  p :     2.672148
      px      :     0.849525
      py      :     0.820181
      dz2     :     0.007181  d :     0.120714
      dxz     :     0.013048
      dyz     :     0.025115
      dx2y2   :     0.046816
      dxy     :     0.028554
      f0      :     0.001863  f :     0.010191
      f+1     :     0.000884
      f-1     :     0.000686
      f+2     :     0.000527
      f-2     :     0.001041
      f+3     :     0.001516
      f-3     :     0.003674

 11 C s       :     3.229486  s :     3.229486
      pz      :     0.884804  p :     2.848420
      px      :     0.978070
      py      :     0.985546
      dz2     :     0.003640  d :     0.090122
      dxz     :     0.021511
      dyz     :     0.010825
      dx2y2   :     0.021412
      dxy     :     0.032733
      f0      :     0.001606  f :     0.007651
      f+1     :     0.000628
      f-1     :     0.000596
      f+2     :     0.000901
      f-2     :     0.000527
      f+3     :     0.001053
      f-3     :     0.002340

 12 C s       :     3.215399  s :     3.215399
      pz      :     0.971168  p :     2.869011
      px      :     0.942699
      py      :     0.955143
      dz2     :     0.004882  d :     0.080535
      dxz     :     0.018439
      dyz     :     0.008724
      dx2y2   :     0.020920
      dxy     :     0.027570
      f0      :     0.001589  f :     0.007465
      f+1     :     0.000605
      f-1     :     0.000618
      f+2     :     0.000714
      f-2     :     0.000500
      f+3     :     0.001136
      f-3     :     0.002302

 13 C s       :     3.216460  s :     3.216460
      pz      :     0.971434  p :     2.869064
      px      :     0.942758
      py      :     0.954873
      dz2     :     0.004875  d :     0.080488
      dxz     :     0.018459
      dyz     :     0.008699
      dx2y2   :     0.020932
      dxy     :     0.027523
      f0      :     0.001589  f :     0.007463
      f+1     :     0.000605
      f-1     :     0.000619
      f+2     :     0.000712
      f-2     :     0.000502
      f+3     :     0.001136
      f-3     :     0.002301

 14 C s       :     3.227860  s :     3.227860
      pz      :     0.884676  p :     2.851154
      px      :     0.979983
      py      :     0.986496
      dz2     :     0.003628  d :     0.090286
      dxz     :     0.021486
      dyz     :     0.010856
      dx2y2   :     0.021452
      dxy     :     0.032864
      f0      :     0.001606  f :     0.007651
      f+1     :     0.000629
      f-1     :     0.000596
      f+2     :     0.000904
      f-2     :     0.000524
      f+3     :     0.001052
      f-3     :     0.002340

 15 C s       :     3.179903  s :     3.179903
      pz      :     1.002194  p :     2.667882
      px      :     0.849191
      py      :     0.816497
      dz2     :     0.007190  d :     0.120499
      dxz     :     0.013044
      dyz     :     0.025113
      dx2y2   :     0.046745
      dxy     :     0.028406
      f0      :     0.001863  f :     0.010190
      f+1     :     0.000884
      f-1     :     0.000687
      f+2     :     0.000527
      f-2     :     0.001041
      f+3     :     0.001515
      f-3     :     0.003674

 16 C s       :     3.267268  s :     3.267268
      pz      :     0.913746  p :     2.506970
      px      :     0.780158
      py      :     0.813065
      dz2     :     0.003880  d :     0.163983
      dxz     :     0.024722
      dyz     :     0.026667
      dx2y2   :     0.053175
      dxy     :     0.055539
      f0      :     0.001912  f :     0.010807
      f+1     :     0.000723
      f-1     :     0.000713
      f+2     :     0.001086
      f-2     :     0.001046
      f+3     :     0.001564
      f-3     :     0.003763

 17 C s       :     3.183395  s :     3.183395
      pz      :     1.002529  p :     2.667265
      px      :     0.846832
      py      :     0.817904
      dz2     :     0.007176  d :     0.120646
      dxz     :     0.013048
      dyz     :     0.025114
      dx2y2   :     0.046850
      dxy     :     0.028459
      f0      :     0.001862  f :     0.010190
      f+1     :     0.000884
      f-1     :     0.000687
      f+2     :     0.000528
      f-2     :     0.001041
      f+3     :     0.001516
      f-3     :     0.003672

 18 C s       :     3.225661  s :     3.225661
      pz      :     0.884863  p :     2.851288
      px      :     0.979917
      py      :     0.986508
      dz2     :     0.003631  d :     0.090235
      dxz     :     0.021511
      dyz     :     0.010824
      dx2y2   :     0.021442
      dxy     :     0.032828
      f0      :     0.001606  f :     0.007651
      f+1     :     0.000629
      f-1     :     0.000596
      f+2     :     0.000901
      f-2     :     0.000527
      f+3     :     0.001052
      f-3     :     0.002340

 19 C s       :     3.215772  s :     3.215772
      pz      :     0.971042  p :     2.868971
      px      :     0.942796
      py      :     0.955133
      dz2     :     0.004870  d :     0.080570
      dxz     :     0.018439
      dyz     :     0.008723
      dx2y2   :     0.020926
      dxy     :     0.027612
      f0      :     0.001589  f :     0.007464
      f+1     :     0.000605
      f-1     :     0.000619
      f+2     :     0.000714
      f-2     :     0.000500
      f+3     :     0.001135
      f-3     :     0.002302

 20 C s       :     3.039943  s :     3.039943
      pz      :     0.755166  p :     2.462526
      px      :     0.935518
      py      :     0.771841
      dz2     :     0.006685  d :     0.267316
      dxz     :     0.030340
      dyz     :     0.065123
      dx2y2   :     0.114031
      dxy     :     0.051136
      f0      :     0.002846  f :     0.021717
      f+1     :     0.000994
      f-1     :     0.001370
      f+2     :     0.001409
      f-2     :     0.003327
      f+3     :     0.003332
      f-3     :     0.008439

 21 N s       :     3.416650  s :     3.416650
      pz      :     1.588870  p :     3.721654
      px      :     1.088337
      py      :     1.044448
      dz2     :     0.005867  d :     0.052702
      dxz     :     0.002143
      dyz     :     0.009581
      dx2y2   :     0.019424
      dxy     :     0.015687
      f0      :     0.000802  f :     0.004212
      f+1     :     0.000604
      f-1     :     0.000716
      f+2     :     0.000200
      f-2     :     0.000189
      f+3     :     0.000837
      f-3     :     0.000865

 22 C s       :     3.041367  s :     3.041367
      pz      :     0.755127  p :     2.462555
      px      :     0.935834
      py      :     0.771594
      dz2     :     0.006681  d :     0.267293
      dxz     :     0.030305
      dyz     :     0.065173
      dx2y2   :     0.113803
      dxy     :     0.051331
      f0      :     0.002846  f :     0.021717
      f+1     :     0.000994
      f-1     :     0.001370
      f+2     :     0.001409
      f-2     :     0.003327
      f+3     :     0.003322
      f-3     :     0.008449

 23 C s       :     3.039279  s :     3.039279
      pz      :     0.755106  p :     2.462024
      px      :     0.935785
      py      :     0.771133
      dz2     :     0.006672  d :     0.267191
      dxz     :     0.030339
      dyz     :     0.065130
      dx2y2   :     0.113975
      dxy     :     0.051075
      f0      :     0.002847  f :     0.021721
      f+1     :     0.000995
      f-1     :     0.001368
      f+2     :     0.001408
      f-2     :     0.003327
      f+3     :     0.003332
      f-3     :     0.008444

 24 N s       :     3.417223  s :     3.417223
      pz      :     1.588902  p :     3.721724
      px      :     1.088393
      py      :     1.044430
      dz2     :     0.005872  d :     0.052723
      dxz     :     0.002142
      dyz     :     0.009582
      dx2y2   :     0.019435
      dxy     :     0.015692
      f0      :     0.000802  f :     0.004212
      f+1     :     0.000604
      f-1     :     0.000716
      f+2     :     0.000199
      f-2     :     0.000189
      f+3     :     0.000837
      f-3     :     0.000865

 25 C s       :     3.039333  s :     3.039333
      pz      :     0.755211  p :     2.462271
      px      :     0.935938
      py      :     0.771122
      dz2     :     0.006673  d :     0.267360
      dxz     :     0.030301
      dyz     :     0.065182
      dx2y2   :     0.113901
      dxy     :     0.051303
      f0      :     0.002847  f :     0.021719
      f+1     :     0.000994
      f-1     :     0.001368
      f+2     :     0.001408
      f-2     :     0.003327
      f+3     :     0.003322
      f-3     :     0.008452

 26 O s       :     3.802509  s :     3.802509
      pz      :     1.395734  p :     4.485508
      px      :     1.637840
      py      :     1.451933
      dz2     :     0.002898  d :     0.032134
      dxz     :     0.003529
      dyz     :     0.008124
      dx2y2   :     0.008189
      dxy     :     0.009393
      f0      :     0.000191  f :     0.001864
      f+1     :     0.000066
      f-1     :     0.000140
      f+2     :     0.000086
      f-2     :     0.000381
      f+3     :     0.000464
      f-3     :     0.000536

 27 O s       :     3.802468  s :     3.802468
      pz      :     1.395686  p :     4.485369
      px      :     1.638353
      py      :     1.451330
      dz2     :     0.002897  d :     0.032130
      dxz     :     0.003513
      dyz     :     0.008140
      dx2y2   :     0.008191
      dxy     :     0.009389
      f0      :     0.000191  f :     0.001864
      f+1     :     0.000066
      f-1     :     0.000140
      f+2     :     0.000087
      f-2     :     0.000380
      f+3     :     0.000464
      f-3     :     0.000536

 28 O s       :     3.802547  s :     3.802547
      pz      :     1.395713  p :     4.485367
      px      :     1.637726
      py      :     1.451928
      dz2     :     0.002898  d :     0.032128
      dxz     :     0.003530
      dyz     :     0.008123
      dx2y2   :     0.008187
      dxy     :     0.009390
      f0      :     0.000191  f :     0.001864
      f+1     :     0.000066
      f-1     :     0.000140
      f+2     :     0.000086
      f-2     :     0.000381
      f+3     :     0.000464
      f-3     :     0.000536

 29 O s       :     3.802604  s :     3.802604
      pz      :     1.395722  p :     4.485398
      px      :     1.638367
      py      :     1.451309
      dz2     :     0.002899  d :     0.032130
      dxz     :     0.003513
      dyz     :     0.008140
      dx2y2   :     0.008190
      dxy     :     0.009389
      f0      :     0.000191  f :     0.001864
      f+1     :     0.000066
      f-1     :     0.000140
      f+2     :     0.000087
      f-2     :     0.000380
      f+3     :     0.000464
      f-3     :     0.000536

 30 H s       :     0.721315  s :     0.721315
      pz      :     0.010425  p :     0.036396
      px      :     0.021240
      py      :     0.004730

 31 H s       :     0.721352  s :     0.721352
      pz      :     0.010426  p :     0.036395
      px      :     0.021239
      py      :     0.004730

 32 H s       :     0.863361  s :     0.863361
      pz      :     0.004547  p :     0.023356
      px      :     0.006262
      py      :     0.012547

 33 H s       :     0.814545  s :     0.814545
      pz      :     0.003864  p :     0.022645
      px      :     0.007273
      py      :     0.011508

 34 H s       :     0.815175  s :     0.815175
      pz      :     0.003864  p :     0.022653
      px      :     0.007261
      py      :     0.011528

 35 H s       :     0.863214  s :     0.863214
      pz      :     0.004548  p :     0.023358
      px      :     0.006277
      py      :     0.012533

 36 H s       :     0.863224  s :     0.863224
      pz      :     0.004547  p :     0.023357
      px      :     0.006263
      py      :     0.012548

 37 H s       :     0.814768  s :     0.814768
      pz      :     0.003864  p :     0.022650
      px      :     0.007275
      py      :     0.011510

 38 H s       :     0.814709  s :     0.814709
      pz      :     0.003865  p :     0.022651
      px      :     0.007259
      py      :     0.011527

 39 H s       :     0.863076  s :     0.863076
      pz      :     0.004549  p :     0.023358
      px      :     0.006278
      py      :     0.012530



                     *******************************
                     * LOEWDIN POPULATION ANALYSIS *
                     *******************************

----------------------
LOEWDIN ATOMIC CHARGES
----------------------
   0 C :   -0.034976
   1 C :   -0.034972
   2 C :   -0.000166
   3 C :   -0.034967
   4 C :   -0.034967
   5 C :   -0.000164
   6 C :   -0.076986
   7 C :   -0.053163
   8 C :   -0.078937
   9 C :   -0.014422
  10 C :   -0.078938
  11 C :   -0.053175
  12 C :   -0.076983
  13 C :   -0.076985
  14 C :   -0.053175
  15 C :   -0.078933
  16 C :   -0.014425
  17 C :   -0.078935
  18 C :   -0.053171
  19 C :   -0.076984
  20 C :   -0.360310
  21 N :    0.201852
  22 C :   -0.360314
  23 C :   -0.360312
  24 N :    0.201856
  25 C :   -0.360316
  26 O :    0.094880
  27 O :    0.094885
  28 O :    0.094879
  29 O :    0.094881
  30 H :    0.205632
  31 H :    0.205632
  32 H :    0.149622
  33 H :    0.163420
  34 H :    0.163423
  35 H :    0.149620
  36 H :    0.149620
  37 H :    0.163424
  38 H :    0.163426
  39 H :    0.149623

-------------------------------
LOEWDIN REDUCED ORBITAL CHARGES
-------------------------------
  0 C s       :     2.684921  s :     2.684921
      pz      :     0.816166  p :     2.790776
      px      :     0.964097
      py      :     1.010512
      dz2     :     0.032149  d :     0.504075
      dxz     :     0.068231
      dyz     :     0.077449
      dx2y2   :     0.169361
      dxy     :     0.156884
      f0      :     0.003908  f :     0.055204
      f+1     :     0.003955
      f-1     :     0.004071
      f+2     :     0.005380
      f-2     :     0.007276
      f+3     :     0.009057
      f-3     :     0.021557

  1 C s       :     2.684919  s :     2.684919
      pz      :     0.816123  p :     2.790775
      px      :     0.964135
      py      :     1.010517
      dz2     :     0.032118  d :     0.504074
      dxz     :     0.068220
      dyz     :     0.077448
      dx2y2   :     0.169401
      dxy     :     0.156887
      f0      :     0.003908  f :     0.055204
      f+1     :     0.003954
      f-1     :     0.004071
      f+2     :     0.005377
      f-2     :     0.007275
      f+3     :     0.009066
      f-3     :     0.021554

  2 C s       :     2.671445  s :     2.671445
      pz      :     0.847312  p :     2.785124
      px      :     0.967225
      py      :     0.970587
      dz2     :     0.032517  d :     0.488413
      dxz     :     0.063533
      dyz     :     0.069064
      dx2y2   :     0.162551
      dxy     :     0.160748
      f0      :     0.003754  f :     0.055184
      f+1     :     0.003979
      f-1     :     0.004060
      f+2     :     0.006707
      f-2     :     0.005955
      f+3     :     0.009088
      f-3     :     0.021641

  3 C s       :     2.684923  s :     2.684923
      pz      :     0.816151  p :     2.790774
      px      :     0.964099
      py      :     1.010524
      dz2     :     0.032135  d :     0.504069
      dxz     :     0.068223
      dyz     :     0.077452
      dx2y2   :     0.169369
      dxy     :     0.156890
      f0      :     0.003908  f :     0.055203
      f+1     :     0.003954
      f-1     :     0.004071
      f+2     :     0.005378
      f-2     :     0.007276
      f+3     :     0.009057
      f-3     :     0.021558

  4 C s       :     2.684923  s :     2.684923
      pz      :     0.816130  p :     2.790773
      px      :     0.964135
      py      :     1.010508
      dz2     :     0.032117  d :     0.504068
      dxz     :     0.068220
      dyz     :     0.077448
      dx2y2   :     0.169400
      dxy     :     0.156884
      f0      :     0.003908  f :     0.055203
      f+1     :     0.003954
      f-1     :     0.004071
      f+2     :     0.005378
      f-2     :     0.007274
      f+3     :     0.009066
      f-3     :     0.021552

  5 C s       :     2.671444  s :     2.671444
      pz      :     0.847314  p :     2.785124
      px      :     0.967224
      py      :     0.970585
      dz2     :     0.032520  d :     0.488412
      dxz     :     0.063534
      dyz     :     0.069064
      dx2y2   :     0.162548
      dxy     :     0.160747
      f0      :     0.003754  f :     0.055184
      f+1     :     0.003980
      f-1     :     0.004060
      f+2     :     0.006707
      f-2     :     0.005955
      f+3     :     0.009088
      f-3     :     0.021640

  6 C s       :     2.748026  s :     2.748026
      pz      :     0.879178  p :     2.911995
      px      :     1.036673
      py      :     0.996143
      dz2     :     0.025055  d :     0.374777
      dxz     :     0.058591
      dyz     :     0.024093
      dx2y2   :     0.119512
      dxy     :     0.147526
      f0      :     0.003101  f :     0.042188
      f+1     :     0.004012
      f-1     :     0.003448
      f+2     :     0.005108
      f-2     :     0.003042
      f+3     :     0.007990
      f-3     :     0.015488

  7 C s       :     2.752164  s :     2.752164
      pz      :     0.818578  p :     2.870415
      px      :     1.038104
      py      :     1.013732
      dz2     :     0.024705  d :     0.386597
      dxz     :     0.067175
      dyz     :     0.030065
      dx2y2   :     0.115949
      dxy     :     0.148703
      f0      :     0.003277  f :     0.043987
      f+1     :     0.003947
      f-1     :     0.003360
      f+2     :     0.006235
      f-2     :     0.003265
      f+3     :     0.008029
      f-3     :     0.015874

  8 C s       :     2.691690  s :     2.691690
      pz      :     0.871278  p :     2.849787
      px      :     0.961906
      py      :     1.016603
      dz2     :     0.035053  d :     0.482327
      dxz     :     0.045027
      dyz     :     0.076039
      dx2y2   :     0.182691
      dxy     :     0.143517
      f0      :     0.004035  f :     0.055133
      f+1     :     0.004312
      f-1     :     0.004268
      f+2     :     0.003979
      f-2     :     0.007098
      f+3     :     0.009592
      f-3     :     0.021850

  9 C s       :     2.671436  s :     2.671436
      pz      :     0.817033  p :     2.772770
      px      :     0.974972
      py      :     0.980766
      dz2     :     0.032447  d :     0.512276
      dxz     :     0.072694
      dyz     :     0.081120
      dx2y2   :     0.163060
      dxy     :     0.162954
      f0      :     0.003953  f :     0.057939
      f+1     :     0.004020
      f-1     :     0.004022
      f+2     :     0.007113
      f-2     :     0.007435
      f+3     :     0.009177
      f-3     :     0.022220

 10 C s       :     2.691687  s :     2.691687
      pz      :     0.871284  p :     2.849790
      px      :     0.961941
      py      :     1.016565
      dz2     :     0.035058  d :     0.482327
      dxz     :     0.045026
      dyz     :     0.076040
      dx2y2   :     0.182708
      dxy     :     0.143495
      f0      :     0.004035  f :     0.055134
[...]
      px      :     1.588997
      py      :     1.523674
      dz2     :     0.007932  d :     0.066456
      dxz     :     0.004255
      dyz     :     0.010323
      dx2y2   :     0.019356
      dxy     :     0.024591
      f0      :     0.000433  f :     0.005835
      f+1     :     0.000341
      f-1     :     0.000705
      f+2     :     0.000173
      f-2     :     0.000638
      f+3     :     0.001789
      f-3     :     0.001756

 28 O s       :     3.399859  s :     3.399859
      pz      :     1.320311  p :     4.432972
      px      :     1.588769
      py      :     1.523892
      dz2     :     0.007931  d :     0.066456
      dxz     :     0.004276
      dyz     :     0.010304
      dx2y2   :     0.019341
      dxy     :     0.024603
      f0      :     0.000433  f :     0.005835
      f+1     :     0.000342
      f-1     :     0.000704
      f+2     :     0.000171
      f-2     :     0.000640
      f+3     :     0.001789
      f-3     :     0.001755

 29 O s       :     3.399853  s :     3.399853
      pz      :     1.320311  p :     4.432975
      px      :     1.589003
      py      :     1.523661
      dz2     :     0.007931  d :     0.066456
      dxz     :     0.004256
      dyz     :     0.010324
      dx2y2   :     0.019355
      dxy     :     0.024589
      f0      :     0.000433  f :     0.005835
      f+1     :     0.000340
      f-1     :     0.000705
      f+2     :     0.000173
      f-2     :     0.000638
      f+3     :     0.001789
      f-3     :     0.001755

 30 H s       :     0.692467  s :     0.692467
      pz      :     0.029345  p :     0.101901
      px      :     0.058812
      py      :     0.013744

 31 H s       :     0.692468  s :     0.692468
      pz      :     0.029346  p :     0.101901
      px      :     0.058812
      py      :     0.013743

 32 H s       :     0.790589  s :     0.790589
      pz      :     0.013247  p :     0.059789
      px      :     0.016652
      py      :     0.029890

 33 H s       :     0.776557  s :     0.776557
      pz      :     0.011345  p :     0.060023
      px      :     0.019240
      py      :     0.029439

 34 H s       :     0.776555  s :     0.776555
      pz      :     0.011345  p :     0.060022
      px      :     0.019199
      py      :     0.029478

 35 H s       :     0.790591  s :     0.790591
      pz      :     0.013249  p :     0.059789
      px      :     0.016683
      py      :     0.029857

 36 H s       :     0.790592  s :     0.790592
      pz      :     0.013246  p :     0.059788
      px      :     0.016651
      py      :     0.029891

 37 H s       :     0.776553  s :     0.776553
      pz      :     0.011346  p :     0.060023
      px      :     0.019239
      py      :     0.029438

 38 H s       :     0.776551  s :     0.776551
      pz      :     0.011347  p :     0.060023
      px      :     0.019200
      py      :     0.029477

 39 H s       :     0.790588  s :     0.790588
      pz      :     0.013252  p :     0.059789
      px      :     0.016683
      py      :     0.029854



                      *****************************
                      * MAYER POPULATION ANALYSIS *
                      *****************************

  NA   - Mulliken gross atomic population
  ZA   - Total nuclear charge
  QA   - Mulliken gross atomic charge
  VA   - Mayer's total valence
  BVA  - Mayer's bonded valence
  FA   - Mayer's free valence

  ATOM       NA         ZA         QA         VA         BVA        FA
  0 C      5.8647     6.0000     0.1353     3.7498     3.7498    -0.0000
  1 C      5.8632     6.0000     0.1368     3.7483     3.7483    -0.0000
  2 C      6.0371     6.0000    -0.0371     3.8409     3.8409    -0.0000
  3 C      5.8628     6.0000     0.1372     3.7470     3.7470     0.0000
  4 C      5.8616     6.0000     0.1384     3.7435     3.7435    -0.0000
  5 C      6.0375     6.0000    -0.0375     3.8435     3.8435    -0.0000
  6 C      6.1750     6.0000    -0.1750     3.8464     3.8464    -0.0000
  7 C      6.1720     6.0000    -0.1720     3.9780     3.9780    -0.0000
  8 C      5.9861     6.0000     0.0139     3.6266     3.6266    -0.0000
  9 C      5.9442     6.0000     0.0558     3.7766     3.7766    -0.0000
 10 C      5.9849     6.0000     0.0151     3.6187     3.6187    -0.0000
 11 C      6.1757     6.0000    -0.1757     3.9754     3.9754     0.0000
 12 C      6.1724     6.0000    -0.1724     3.8407     3.8407    -0.0000
 13 C      6.1735     6.0000    -0.1735     3.8413     3.8413    -0.0000
 14 C      6.1770     6.0000    -0.1770     3.9781     3.9781    -0.0000
 15 C      5.9785     6.0000     0.0215     3.6131     3.6131    -0.0000
 16 C      5.9490     6.0000     0.0510     3.7895     3.7895    -0.0000
 17 C      5.9815     6.0000     0.0185     3.6181     3.6181    -0.0000
 18 C      6.1748     6.0000    -0.1748     3.9765     3.9765    -0.0000
 19 C      6.1728     6.0000    -0.1728     3.8419     3.8419     0.0000
 20 C      5.7915     6.0000     0.2085     4.4018     4.4018    -0.0000
 21 N      7.1952     7.0000    -0.1952     3.1514     3.1514    -0.0000
 22 C      5.7929     6.0000     0.2071     4.4014     4.4014    -0.0000
 23 C      5.7902     6.0000     0.2098     4.4012     4.4012    -0.0000
 24 N      7.1959     7.0000    -0.1959     3.1517     3.1517    -0.0000
 25 C      5.7907     6.0000     0.2093     4.4007     4.4007    -0.0000
 26 O      8.3220     8.0000    -0.3220     2.2157     2.2157    -0.0000
 27 O      8.3218     8.0000    -0.3218     2.2159     2.2159    -0.0000
 28 O      8.3219     8.0000    -0.3219     2.2158     2.2158    -0.0000
 29 O      8.3220     8.0000    -0.3220     2.2158     2.2158    -0.0000
 30 H      0.7577     1.0000     0.2423     0.9665     0.9665    -0.0000
 31 H      0.7577     1.0000     0.2423     0.9665     0.9665    -0.0000
 32 H      0.8867     1.0000     0.1133     0.9862     0.9862    -0.0000
 33 H      0.8372     1.0000     0.1628     0.9866     0.9866    -0.0000
 34 H      0.8378     1.0000     0.1622     0.9870     0.9870     0.0000
 35 H      0.8866     1.0000     0.1134     0.9859     0.9859    -0.0000
 36 H      0.8866     1.0000     0.1134     0.9859     0.9859    -0.0000
 37 H      0.8374     1.0000     0.1626     0.9865     0.9865    -0.0000
 38 H      0.8374     1.0000     0.1626     0.9866     0.9866    -0.0000
 39 H      0.8864     1.0000     0.1136     0.9858     0.9858     0.0000

  Mayer bond orders larger than 0.100000
B(  0-C ,  1-C ) :   1.0358 B(  0-C ,  5-C ) :   1.2562 B(  0-C , 19-C ) :   1.4446 
B(  1-C ,  2-C ) :   1.2564 B(  1-C ,  6-C ) :   1.4450 B(  2-C ,  3-C ) :   1.2543 
B(  2-C ,  9-C ) :   1.2901 B(  3-C ,  4-C ) :   1.0338 B(  3-C , 12-C ) :   1.4446 
B(  4-C ,  5-C ) :   1.2558 B(  4-C , 13-C ) :   1.4432 B(  5-C , 16-C ) :   1.2894 
B(  6-C ,  7-C ) :   1.2915 B(  6-C , 32-H ) :   0.9778 B(  7-C ,  8-C ) :   1.5017 
B(  7-C , 26-O ) :   0.1112 B(  7-C , 33-H ) :   0.9596 B(  8-C ,  9-C ) :   1.2461 
B(  8-C , 23-C ) :   0.9388 B(  8-C , 26-O ) :  -0.1768 B(  9-C , 10-C ) :   1.2412 
B( 10-C , 11-C ) :   1.4989 B( 10-C , 25-C ) :   0.9398 B( 10-C , 27-O ) :  -0.1762 
B( 11-C , 12-C ) :   1.2881 B( 11-C , 27-O ) :   0.1111 B( 11-C , 34-H ) :   0.9629 
B( 12-C , 35-H ) :   0.9780 B( 13-C , 14-C ) :   1.2884 B( 13-C , 36-H ) :   0.9782 
B( 14-C , 15-C ) :   1.5003 B( 14-C , 28-O ) :   0.1125 B( 14-C , 37-H ) :   0.9622 
B( 15-C , 16-C ) :   1.2448 B( 15-C , 20-C ) :   0.9362 B( 15-C , 28-O ) :  -0.1777 
B( 16-C , 17-C ) :   1.2469 B( 17-C , 18-C ) :   1.5003 B( 17-C , 22-C ) :   0.9368 
B( 17-C , 29-O ) :  -0.1777 B( 18-C , 19-C ) :   1.2887 B( 18-C , 29-O ) :   0.1119 
B( 18-C , 38-H ) :   0.9615 B( 19-C , 39-H ) :   0.9779 B( 20-C , 21-N ) :   1.1798 
B( 20-C , 28-O ) :   2.1849 B( 21-N , 22-C ) :   1.1797 B( 21-N , 30-H ) :   0.8866 
B( 22-C , 29-O ) :   2.1851 B( 23-C , 24-N ) :   1.1794 B( 23-C , 26-O ) :   2.1844 
B( 24-N , 25-C ) :   1.1790 B( 24-N , 31-H ) :   0.8867 B( 25-C , 27-O ) :   2.1842 


-------
TIMINGS
-------

Total SCF time: 0 days 0 hours 5 min 20 sec 

Total time                  ....     320.233 sec
Sum of individual times     ....     305.311 sec  ( 95.3%)

SCF preparation             ....       0.416 sec  (  0.1%)
Fock matrix formation       ....     289.159 sec  ( 90.3%)
  Startup                   ....       0.114 sec  (  0.0% of F)
  Split-RI-J                ....      16.504 sec  (  5.7% of F)
  Chain of spheres X        ....     264.757 sec  ( 91.6% of F)
  XC integration            ....      19.100 sec  (  6.6% of F)
    XC Preparation          ....       0.000 sec  (  0.0% of XC)
    Basis function eval.    ....       4.071 sec  ( 21.3% of XC)
    Density eval.           ....       3.410 sec  ( 17.9% of XC)
    XC-Functional eval.     ....       0.267 sec  (  1.4% of XC)
    XC-Potential eval.      ....       5.596 sec  ( 29.3% of XC)
Diagonalization             ....       0.000 sec  (  0.0%)
Density matrix formation    ....       2.460 sec  (  0.8%)
Total Energy calculation    ....       1.183 sec  (  0.4%)
Population analysis         ....       1.016 sec  (  0.3%)
Orbital Transformation      ....       0.696 sec  (  0.2%)
Orbital Orthonormalization  ....       0.000 sec  (  0.0%)
DIIS solution               ....       4.855 sec  (  1.5%)
SOSCF solution              ....       5.526 sec  (  1.7%)
Finished LeanSCF after 320.3 sec

Maximum memory used throughout the entire LEANSCF-calculation: 140.3 MB


-------------------------------------------------------------------------------
                          DFT DISPERSION CORRECTION                            
                                                                               
                                DFTD4 V3.4.0                                   
-------------------------------------------------------------------------------
The WB97X-D3BJ functional is recognized
Active option DFTDOPT                   ...         5   

-------------------------   ----------------
Dispersion correction           -0.137900095
-------------------------   ----------------


-------------------------   --------------------
FINAL SINGLE POINT ENERGY     -1332.118458471974
-------------------------   --------------------



           ************************************************************
           *        Program running with 8 parallel MPI-processes     *
           *              working on a common directory               *
           ************************************************************

------------------------------------------------------------------------------
                              ORCA PROPERTY CALCULATIONS
------------------------------------------------------------------------------

GBWName                                 ... pdi_sp.gbw
Number of atoms                         ...     40
Number of basis functions               ...    990
Max core memory                         ...   3000 MB

Electric properties:
Dipole moment                           ... YES
Quadrupole moment                       ...  NO
Static polarizability (Dipole/Dipole)   ...  NO
Static polarizability (Dipole/Quad.)    ...  NO
Static polarizability (Quad./Quad.)     ...  NO
Static polarizability (Velocity)        ...  NO
Static hyperpolarizability              ...  NO

Atomic electric properties:
Dipole moment                           ...  NO
Quadrupole moment                       ...  NO
Static polarizability                   ...  NO

Choice of electric origin               ... Center of mass
Position of electric origin             ...    -0.004689    -0.001575    -0.010832

General magnetic properties:
Magnetizability                         ...  NO

EPR properties:
g-Tensor (aka g-matrix)                 ...  NO
Zero-Field splitting spin-orbit         ...  NO
Zero-field splitting spin-spin          ...  NO
Hyperfine couplings                     ...  NO (   0 nuclei)
Quadrupole couplings                    ...  NO (   0 nuclei)
Contact density                         ...  NO (   0 nuclei)

NMR properties:
Chemical shifts                         ...  NO (   0 nuclei)
Spin-rotation constants                 ...  NO (   0 nuclei)
Spin-spin couplings                     ...  NO (   0 nuclei,    0 pairs)

Choice of magnetic origin               ... GIAO
Position of magnetic origin             ...     0.000000     0.000000     0.000000

Properties with geometric perturbations:
SCF Hessian                             ...  NO
IR spectrum                             ...  NO
VCD spectrum                            ...  NO
X-ray spectroscopy properties:
SCF XES/XAS/RIXS spectra                ...  NO

SCF SOC stabilization energy            ...  NO
Diagonal Born-Oppenheimer correction    ...  NO

-------------
DIPOLE MOMENT
-------------

Method             : SCF
Type of density    : Electron Density
Multiplicity       :   1
Irrep              :   0
Energy             : -1331.9805583766515156 Eh
Basis              : AO
                                X                 Y                 Z
Electronic contribution:     -0.000038760       0.000041133       0.000014618
Nuclear contribution   :      0.000004311      -0.000133458       0.000016819
                        -----------------------------------------
Total Dipole Moment    :     -0.000034449      -0.000092326       0.000031437
                        -----------------------------------------
Magnitude (a.u.)       :      0.000103436
Magnitude (Debye)      :      0.000262914



--------------------
Rotational spectrum 
--------------------
 
Rotational constants in cm-1:             0.013964             0.002953             0.002437 
Rotational constants in MHz :           418.616829            88.522233            73.070675 

Dipole components along the rotational axes: 
x,y,z [a.u.] :    -0.000034    -0.000092     0.000032 
x,y,z [Debye]:    -0.000087    -0.000234     0.000082 

 

Dipole moment calculation done in   0.1 sec 

Maximum memory used throughout the entire PROP-calculation: 86.0 MB

--------------------------------
SUGGESTED CITATIONS FOR THIS RUN
--------------------------------

Below you find a list of papers that are relevant to this ORCA run
We neither can nor want to force you to cite these papers, but we appreciate if you do
You receive ORCA, which is the product of decades of hard work by many enthusiastic individuals, for free
The only thing we kindly ask in return is that you cite our papers,
We deeply appreciate it, if you show your appreciation for ORCA by not just citing the generic ORCA reference.

Please note that relegating all ORCA citations to the supporting information does *not* help us.
SI sections are not indexed - citations you put there will not count into any citation statistics
But we need these citations in order to attract the funding resources that allow us to do what we are doing

Therefore, if you are a happy ORCA user, please consider citing a few of the papers listed below in the main body of your paper

In addition to the list printed below, the program has created the file pdi_sp.bibtex that contains the list in bibtex format
You can import this file easily into all common literature databanks and citation aid programs

It goes without saying that in many instances, there are alternative algorithms to achieve similar
results as the ones you have gotten from ORCA. It is, of course, also the case that in some instances
ORCA just re-implements algorithms worked out by others. We are fully aware of that and we are also
fully appreciative of our colleagues work. Hence this citation list should not be read as indicating
that the listed papers, which are focused on our own work, are the only ones worth citing. It simply
meant to make it easier for users to cite ORCA specific papers. It is not a substitute for doing your
own literature research and citing the relevant literature in a scientifically appropriate manner.

List of essential papers. We consider these as the minimum necessary citations

  1. Neese, F.
     Software update: the ORCA program system, version 6.0
     WIRES Comput. Molec. Sci. 2025 15(1), e70019
     doi.org/10.1002/wcms.70019

List of papers to cite with high priority. The work reported in these papers was absolutely
necessary for this run to complete.
Our perspective: the developers of density functionals and basis sets usually get cited in chemistry papers
Good! But without the algorithms to do something with them, the functionals or basis sets would not do anything.
Hence, in our opinion, the algorithm design and method developments papers are equally worthy of getting cited

  1. Neese, F.
     An improvement of the resolution of the identity approximation for the formation of the Coulomb matrix
     J. Comp. Chem. 2003 24(14), 1740-1747
     doi.org/10.1002/jcc.10318
  2. Neese, F.; Wennmohs, F.; Hansen, A.; Becker, U.
     Efficient, approximate and parallel Hartree-Fock and hybrid DFT calculations. A 'chain-of-spheres' algorithm for the Hartree-Fock exchange
     Chem. Phys. 2009 356(1-3), 98-109
     doi.org/10.1016/j.chemphys.2008.10.036
  3. Caldeweyher, E.; Bannwarth, C.; Grimme, S.
     Extension of the D3 dispersion coefficient model
     J. Chem. Phys. 2017 147 , 034112
     doi.org/10.1063/1.4993215
  4. Caldeweyher, E.; Ehlert, S.; Hansen, A.; Neugebauer, H.; Spicher, S.; Bannwarth, C.; Grimme, S.
     A generally applicable atomic-charge dependent London dispersion correction
     J. Chem. Phys. 2019 150 , 154122
     doi.org/10.1063/1.5090222
  5. Helmich-Paris, B.; de Souza, B.; Neese, F.; Izsák, R.
     An improved chain of spheres for exchange algorithm
     J. Chem. Phys. 2021 155(10), 104109
     doi.org/10.1063/5.0058766
  6. Neese, F.
     The SHARK Integral Generation and Digestion System
     J. Comp. Chem. 2022 44(3), 381
     doi.org/10.1002/jcc.26942

List of suggested additional citations. These are papers that are important in the 'surrounding' of 
of this run, or papers that preceded the highly important papers. If you like your results we are grateful for a citation.

  1. Izsak, R.; Neese, F.
     An overlap fitted chain of spheres exchange method
     J. Chem. Phys. 2011 135 , 144105
     doi.org/10.1063/1.3646921
  2. Izsak, R.; Hansen, A.; Neese, F.
     The resolution of identity and chain of spheres approximations for the LPNO-CCSD singles Fock term
     Molec. Phys. 2012 110 , 2413-2417
     doi.org/10.1080/00268976.2012.687466
  3. Neese, F.
     The ORCA program system
     WIRES Comput. Molec. Sci. 2012 2(1), 73-78
     doi.org/10.1002/wcms.81
  4. Izsak, R.; Neese, F.; Klopper, W.
     Robust fitting techniques in the chain of spheres approximation to the Fock exchange: The role of the complementary space
     J. Chem. Phys. 2013 139 , 
     doi.org/10.1063/1.4819264
  5. Neese, F.
     Software update: the ORCA program system, version 4.0
     WIRES Comput. Molec. Sci. 2018 8(1), 1-6
     doi.org/10.1002/wcms.1327
  6. Neese, F.; Wennmohs, F.; Becker, U.; Riplinger, C.
     The ORCA quantum chemistry program package
     J. Chem. Phys. 2020 152(22), 224108
     doi.org/10.1063/5.0004608
  7. Neese, F.
     Software update: The ORCA program system—Version 5.0
     WIRES Comput. Molec. Sci. 2022 12(1), e1606
     doi.org/10.1002/wcms.1606

List of optional additional citations

  1. Neese, F.
     Approximate second-order SCF convergence for spin unrestricted wavefunctions
     Chem. Phys. Lett. 2000 325(1-3), 93-98
     doi.org/10.1016/s0009-2614(00)00662-x

Timings for individual modules:

Sum of individual times          ...      326.883 sec (=   5.448 min)
Startup calculation              ...        3.751 sec (=   0.063 min)   1.1 %
SCF iterations                   ...      322.266 sec (=   5.371 min)  98.6 %
Property calculations            ...        0.865 sec (=   0.014 min)   0.3 %
                             ****ORCA TERMINATED NORMALLY****
TOTAL RUN TIME: 0 days 0 hours 5 minutes 27 seconds 455 msec
