
                                 *****************
                                 * O   R   C   A *
                                 *****************

                                            #,                                       
                                            ###                                      
                                            ####                                     
                                            #####                                    
                                            ######                                   
                                           ########,                                 
                                     ,,################,,,,,                         
                               ,,#################################,,                 
                          ,,##########################################,,             
                       ,#########################################, ''#####,          
                    ,#############################################,,   '####,        
                  ,##################################################,,,,####,       
                ,###########''''           ''''###############################       
              ,#####''   ,,,,##########,,,,          '''####'''          '####       
            ,##' ,,,,###########################,,,                        '##       
           ' ,,###''''                  '''############,,,                           
         ,,##''                                '''############,,,,        ,,,,,,###''
      ,#''                                            '''#######################'''  
     '                                                          ''''####''''         
             ,#######,   #######,   ,#######,      ##                                
            ,#'     '#,  ##    ##  ,#'     '#,    #''#        ,####,    ,#,          
            ##       ##  ##   ,#'  ##            #'  '#       #'       ,# #          
            ##       ##  #######   ##           ,######,      #####,      #          
            '#,     ,#'  ##    ##  '#,     ,#' ,#      #,     #,   #      #          
             '#######'   ##     ##  '#######'  #'      '#     '####' #    #          



                #########################################################
                #                        -***-                          #
                #          Department of theory and spectroscopy        #
                #                                                       #
                #                      Frank Neese                      #
                #                                                       #
                #     Directorship, Architecture, Infrastructure        #
                #                    SHARK, DRIVERS                     #
                #        Core code/Algorithms in most modules           #
                #                                                       #
                #        Max Planck Institute fuer Kohlenforschung      #
                #                Kaiser Wilhelm Platz 1                 #
                #                 D-45470 Muelheim/Ruhr                 #
                #                      Germany                          #
                #                                                       #
                #                  All rights reserved                  #
                #                        -***-                          #
                #########################################################


                         Program Version 6.1.1  -  RELEASE   -
                                (GIT: $487d211cc3$)
                          ($2025-11-21 10:33:24 +0100$)


 With contributions from (in alphabetic order):
[Max-Planck-Institut fuer Kohlenforschung]                               
  Daniel Aravena         : Magnetic Suceptibility                        
  Michael Atanasov       : Ab Initio Ligand Field Theory (pilot matlab implementation)
  Alexander A. Auer      : GIAO ZORA, VPT2 properties, NMR spectrum      
  Ute Becker             : All parallelization in ORCA, NUMFREQ, NUMCALC 
  Giovanni Bistoni       : ED, misc. LED, open-shell LED, HFLD           
  Dmytro Bykov           : pre 5.0 version of the SCF Hessian            
  Marcos Casanova-Páez   : Triplet and SCS-CIS(D). UHF-(DLPNO)-IP/EA/STEOM-CCSD. UHF-CVS-IP/STEOM-CCSD   
  Vijay G. Chilkuri      : MRCI spin determinant printing, contributions to CSF-ICE 
  Pauline Colinet        : FMM embedding                                 
  Dipayan Datta          : RHF DLPNO-CCSD density                        
  Achintya Kumar Dutta   : EOM-CC, STEOM-CC                              
  Nicolas Foglia         : Exact transition moments, OPA infrastructure, MCD improvements    
  Dmitry Ganyushin       : Spin-Orbit,Spin-Spin,Magnetic field MRCI      
  Miquel Garcia-Rates    : C-PCM and meta-GGA Hessian, CCSD/C-PCM, Gaussian charge scheme 
  Tiago L. C. Gouveia    : GS-ROHF, GS-ROCIS                             
  Yang Guo               : DLPNO-NEVPT2, F12-NEVPT2, CIM, IAO-localization        
  Andreas Hansen         : Spin unrestricted coupled pair/coupled cluster methods 
  Ingolf Harden          : AUTO-CI MPn and infrastructure                
  Benjamin Helmich-Paris : MC-RPA, TRAH-(SCF,CASSCF), AVAS, COSX integrals, SCF dyn. polar., MC-PDFT, srDFT 
  Lee Huntington         : MR-EOM, pCC                                   
  Robert Izsak           : Overlap fitted RIJCOSX, COSX-SCS-MP3, EOM     
  Riya Kayal             : Wick's Theorem for AUTO-CI, AUTO-CI UHF-CCSDT 
  Emily Kempfer          : AUTO-CI RHF CISDT and CCSDT, approximate NEVPT4
  Christian Kollmar      : KDIIS, OOCD, Brueckner-CCSD(T), CCSD density, CASPT2, CASPT2-K, improved NEVPT2 
  Axel Koslowski         : Symmetry handling                             
  Simone Kossmann        : meta-GGA functionals, TD-DFT gradient, OOMP2, (MP2 Hessian; deprecated post 5.0) 
  Lucas Lang             : DCDCAS, Hyperfine gauge corrections, ICE-SOC+SSC
  Marvin Lechner         : AUTO-CI (C++ implementation), FIC-MRCC        
  Spencer Leger          : CASSCF response                               
  Dagmar Lenk            : GEPOL surface, SMD, ORCA-2-JSON               
  Dimitrios Liakos       : Extrapolation schemes; Compound Job, Property file
  Dimitrios Manganas     : Further ROCIS development; embedding schemes. LFT, Crystal Embedding 
  Dimitrios Pantazis     : SARC Basis sets                               
  Anastasios Papadopoulos: AUTO-CI, single reference methods and gradients 
  Taras Petrenko         : pre 6.0 DFT Hessian and TD-DFT gradient,  ECA, NRVS 
  Petra Pikulova         : Analytic Raman intensities                    
  Peter Pinski           : DLPNO-MP2, DLPNO-MP2 Gradient                 
  Shashank Vittal Rao    : ES-AILFT, MagRelax                            
  Christoph Reimann      : Effective Core Potentials                     
  Marius Retegan         : Local ZFS, SOC                                
  Christoph Riplinger    : Optimizer, TS searches, QM/MM, DLPNO-CCSD(T), (RO)-DLPNO pert. Triples 
  Michael Roemelt        : Original ROCIS implementation, recursive CI coupling coefficients
  Masaaki Saitow         : Open-shell DLPNO-CCSD energy and density      
  Barbara Sandhoefer     : DKH picture change effects                    
  Yorick L. A. Schmerwitz: GMF and freeze-and-release deltaSCF, NEB S-IDPP initial path                    
  Kantharuban Sivalingam : CASSCF convergence/infrastructure, NEVPT2, NEVPT3, NEVPT4(SD), FIC-MRCI and CEPA variants
  Bernardo de Souza      : ESD, SOC TD-DFT                               
  Georgi L. Stoychev     : AutoAux, RI-MP2 NMR, DLPNO-MP2 response, X2C  
  Van Anh Tran           : RI-MP2 g-tensors                              
  Willem Van den Heuvel  : Paramagnetic NMR                              
  Zikuan Wang            : NOTCH, Electric field optimization            
  Frank Wennmohs         : Technical directorship and infrastructure     
  Hang Xu                : AUTO-CI-Response properties                   
                                                                         
[FACCTs GmbH]                                                            
  Markus Bursch, Nicolas Foglia, Miquel Garcia-Rates, Ingolf Harden, Hagen Neugebauer, Anastasios Papadopoulos, 
  Christoph Riplinger, Bernardo de Souza, Georgi L. Stoychev                                                    
                                                                 
  APM, various basis sets, CI-OPT, improved COSX, DLPNO-Multilevel,           
  DOCKER, DRACO, updates on ESD, Fragmentator, GOAT, IRC, LR-CPCM, L-BFGS, MBIS, meta-GGA TD-DFT gradient, ML-optimized integration grids, 
  MM, NACMEs, nearIR, NEB, NEB-TS, NL-DFT gradient (VV10), 2- and 3-layer-ONIOM, interface openCOSMO-RS, QMMM,   
  Crystal-QMMM, RESP, rigid body optimization, SF, symmetry and pop. for TD-DFT, various functionals, SOLVATOR                                   
                                                                         
[Other institutions]                                                     
  V. Asgeirsson          : NEB                                           
  Christoph Bannwarth    : sTDA-DFT, sTD-DFT, PBEh-3c, B97-3c, D3        
  Giovanni Bistoni       : ETS/NOCV, ADLD/ADEX, COVALED                  
  Martin Brehm           : Molecular dynamics                            
  Ronald Cardenas        : ETS/NOCV                                      
  Martina Colucci        : COVALED                                       
  Sebastian Ehlert       : rSCAN, r2SCAN, r2SCAN-3c, D4, dhf basis sets  
  Marvin Friede          : D4 for Fr, Ra, Ac-Lr                          
  Lars Goerigk           : TD-DFT with DH, B97 family of functionals     
  Stefan Grimme          : VdW corrections, initial TS optimization, DFT functionals, gCP, sTDA/sTD-DF 
  Waldemar Hujo          : DFT-NL                                        
  H. Jonsson             : NEB                                           
  Holger Kruse           : gCP                                           
  Marcel Mueller         : wB97X-3c, vDZP basis set                      
  Hagen Neugebauer       : wr2SCAN, Native XTB                           
  Gianluca Regni         : ADLD/ADEX                                     
  Tobias Risthaus        : pre 6.0 range-separated hybrid DFT and stability analysis
  Lukas Wittmann         : regularized MP2, r2SCAN double-hybrids, wr2SCAN        
                                                                         
We gratefully acknowledge several colleagues who have allowed us to      
interface, adapt or use parts of their codes:                            
  Ed Valeev, F. Pavosevic, A. Kumar             : LibInt (2-el integral package), F12 methods 
  Garnet Chan, S. Sharma, J. Yang, R. Olivares  : DMRG                   
  Ulf Ekstrom                                   : XCFun DFT Library      
  Mihaly Kallay                                 : mrcc  (arbitrary order and MRCC methods)
  Frank Weinhold                                : gennbo (NPA and NBO analysis)           
  Simon Mueller                                 : openCOSMO-RS                            
  Christopher J. Cramer and Donald G. Truhlar   : smd solvation model                     
  S Lehtola, MJT Oliveira, MAL Marques          : LibXC Library                           
  Liviu Ungur et al                             : ANISO software                          


 Your calculation uses the libint2 library for the computation of 2-el integrals
 For citations please refer to: http://libint.valeyev.net

 Your ORCA version has been built with support for libXC version: 7.0.0
 For citations please refer to: https://libxc.gitlab.io

 This ORCA versions uses:
   CBLAS   interface :  Fast vector & matrix operations
   LAPACKE interface :  Fast linear algebra routines
   SCALAPACK package :  Parallel linear algebra routines
   Shared memory     :  Shared parallel matrices


  ***********************************
  * Starting time: Fri Jul 17 11:41:20 2026
  * Host name:     Angzes-MacBook-Pro.local
  * Process ID:    6445
  * Working dir.:  /Users/liangze/Desktop/Tsinghua 2026 Summer/pdi_h2o2_production/pdi-theory-demo/calculations/pdi_terminal_functionalized/excited_state_calculations/tda_singlets
  ***********************************

NOTE: MaxCore=1200 MB was set to SCF,MP2,MDCI,CIPSI,MRCI,RASCI and CIS
      => If you want to overwrite this, your respective input block should be placed after the MaxCore statement


***************************************
The coordinates will be read from file: pdi_terminal_functionalized_opt.xyz
***************************************


Your calculation utilizes the atom-pairwise dispersion correction
with the zero-damping scheme (D30)


Your calculation utilizes the SMD solvation module
Please cite in your paper:
Marenich, A. V.; Cramer, C. J.; Truhlar, D. G. J. Phys. Chem. B 2009, 113, 6378 

XCFun DFT library Copyright 2009-2010 Ulf Ekstrom and contributors.
See http://admol.org/xcfun for more information.
This is free software; see the source code for copying conditions.
There is ABSOLUTELY NO WARRANTY; not even for MERCHANTABILITY or FITNESS FOR A PARTICULAR PURPOSE.
For details see the documentation.
Scientific users of this library should cite U. Ekstrom, L. Visscher, R. Bast, A. J. Thorvaldsen and K. Ruud;
J.Chem.Theor.Comp. 2010, DOI: 10.1021/ct100117s
XCFun Version 0.99 

Warning: RI is on but no J-basis has been assigned. Assigning Def2/J (nothing to worry about!)
================================================================================

----- Orbital basis set information -----
Your calculation utilizes the basis: 6-31+G(d,p)
   H-He, Li-Ne : W. J. Hehre, R. Ditchfield and J.A. Pople, J. Chem. Phys. 56, 2257 (1972).
                 Note: He and Ne are unpublished basis sets taken from the Gaussian program.
                 Note: Li and B from J. D. Dill and J. A. Pople, J. Chem. Phys. 62, 2921 (1975).
   Na - Ar     : M. M. Francl, W. J. Pietro, W. J. Hehre, J. S. Binkley, M. S. Gordon, 
                 D. J. DeFrees and J. A. Pople, J. Chem. Phys. 77, 3654 (1982).
   K - Zn      : V. A. Rassolov, J. A. Pople, M. A. Ratner, and T. L. Windus, J. Chem. Phys. 109, 1223 (1998).
   Additional Pol./Diff. from the 6-311G equivalent.

----- AuxJ basis set information -----
Your calculation utilizes the auxiliary basis: def2/J
   H-Rn: F. Weigend, Phys. Chem. Chem. Phys. 8, 1057 (2006).
   Fr-Lr: K. Eichkorn, F. Weigend, O. Treutler, R. Ahlrichs; Theor. Chem. Acc. 97, 119 (1997).

================================================================================
                                        WARNINGS
                       Please study these warnings very carefully!
================================================================================

WARNING: Old DensityContainer found on disk!
         Will remove this file - 
         If you want to keep old densities, please start your calculation with a different basename. 


WARNING: CIS/ROCIS methods need fully converged wavefunctions
  ===> : Setting SCFConvForced true
         You can overwrite this default with %scf ConvForced false 


================================================================================
                                       INPUT FILE
================================================================================
NAME = pdi_terminal_functionalized_tda_singlets.inp
|  1> ! wB97X-D3 6-31+G(d,p) TightSCF RIJCOSX SMD(Water)
|  2> 
|  3> %pal
|  4>   nprocs 8
|  5> end
|  6> 
|  7> %maxcore 1200
|  8> 
|  9> %tddft
| 10>   tda true
| 11>   nroots 30
| 12>   triplets false
| 13> end
| 14> 
| 15> * xyzfile 0 1 pdi_terminal_functionalized_opt.xyz
| 16> 
| 17>                          ****END OF INPUT****
================================================================================

                       ****************************
                       * Single Point Calculation *
                       ****************************

---------------------------------
CARTESIAN COORDINATES (ANGSTROEM)
---------------------------------
  C     -0.740611    1.228664   -0.174338
  C      0.720267    1.235625   -0.197016
  C      1.419547   -0.005865   -0.189316
  C      0.731920   -1.253758   -0.199480
  C     -0.729115   -1.260678   -0.189914
  C     -1.428317   -0.019109   -0.190504
  C      1.461349    2.417454   -0.205404
  C      2.853414    2.413577   -0.213641
  C      3.550922    1.219905   -0.211504
  C      2.845193    0.000815   -0.206771
  C      3.563065   -1.211222   -0.206377
  C      2.876364   -2.411462   -0.202680
  C      1.484440   -2.428383   -0.198100
  C     -1.470357   -2.442415   -0.200020
  C     -2.862437   -2.438464   -0.195501
  C     -3.559829   -1.244785   -0.182994
  C     -2.853968   -0.025802   -0.173590
  C     -3.571704    1.186249   -0.160287
  C     -2.884886    2.386374   -0.149390
  C     -1.492977    2.403245   -0.157379
  C     -5.037874   -1.271261   -0.176462
  N     -5.702826   -0.043027   -0.162936
  C     -5.049327    1.200432   -0.152170
  C      5.028958    1.246456   -0.220424
  N      5.694032    0.018211   -0.221855
  C      5.040688   -1.225348   -0.213920
  O      5.645226    2.303068   -0.227063
  O      5.663158   -2.277699   -0.212807
  O     -5.654272   -2.327797   -0.183006
  O     -5.671677    2.252749   -0.137358
  C     -7.195398   -0.033012   -0.158232
  C      7.186597    0.008309   -0.228834
  C     -7.777902   -0.636167   -1.441149
  C     -7.770066   -0.658240    1.117657
  C     -7.171387   -0.078357    2.396731
  C     -7.183671   -0.037240   -2.713542
  C      7.759736    0.623336   -1.510355
  C      7.770492    0.621862    1.048500
  C      7.155210    0.037410   -2.783919
  C      7.182329    0.028844    2.326461
  H      0.959515    3.377475   -0.210185
  H      3.412752    3.343543   -0.220625
  H      3.443934   -3.336355   -0.202679
  H      0.992044   -3.393279   -0.197150
  H     -0.968710   -3.402505   -0.208295
  H     -3.421870   -3.368370   -0.202517
  H     -3.452360    3.311225   -0.135776
  H     -1.000392    3.367978   -0.145657
  H     -7.438534    1.033813   -0.148377
  H      7.429861   -1.058529   -0.230540
  H     -8.856813   -0.435115   -1.409449
  H     -7.654576   -1.723138   -1.435074
  H     -7.643512   -1.744586    1.093131
  H     -8.849734   -0.460090    1.094444
  H     -6.110434   -0.334290    2.493218
  H     -7.683462   -0.473676    3.279235
  H     -7.254314    1.014254    2.415789
  H     -7.259790    1.056064   -2.712278
  H     -7.704020   -0.413039   -3.599733
  H     -6.125050   -0.298067   -2.821522
  H      8.838657    0.420993   -1.488964
  H      7.637434    1.710293   -1.492771
  H      7.642569    1.708252    1.035480
  H      8.850171    0.425246    1.014982
  H      7.230899   -1.055883   -2.794412
  H      7.668732    0.421963   -3.670340
  H      6.095881    0.299675   -2.880960
  H      6.122059    0.283216    2.433940
  H      7.701249    0.415512    3.208797
  H      7.265898   -1.063852    2.333715

----------------------------
CARTESIAN COORDINATES (A.U.)
----------------------------
  NO LB      ZA    FRAG     MASS         X           Y           Z
   0 C     6.0000    0    12.011   -1.399553    2.321839   -0.329450
   1 C     6.0000    0    12.011    1.361107    2.334993   -0.372306
   2 C     6.0000    0    12.011    2.682554   -0.011083   -0.357755
   3 C     6.0000    0    12.011    1.383129   -2.369260   -0.376963
   4 C     6.0000    0    12.011   -1.377827   -2.382336   -0.358885
   5 C     6.0000    0    12.011   -2.699127   -0.036110   -0.360001
   6 C     6.0000    0    12.011    2.761550    4.568327   -0.388157
   7 C     6.0000    0    12.011    5.392172    4.561000   -0.403722
   8 C     6.0000    0    12.011    6.710271    2.305286   -0.399684
   9 C     6.0000    0    12.011    5.376636    0.001541   -0.390740
  10 C     6.0000    0    12.011    6.733218   -2.288878   -0.389997
  11 C     6.0000    0    12.011    5.435541   -4.557004   -0.383009
  12 C     6.0000    0    12.011    2.805185   -4.588978   -0.374354
  13 C     6.0000    0    12.011   -2.778573   -4.615496   -0.377983
  14 C     6.0000    0    12.011   -5.409222   -4.608030   -0.369444
  15 C     6.0000    0    12.011   -6.727103   -2.352303   -0.345808
  16 C     6.0000    0    12.011   -5.393219   -0.048759   -0.328037
  17 C     6.0000    0    12.011   -6.749542    2.241685   -0.302898
  18 C     6.0000    0    12.011   -5.451645    4.509593   -0.282307
  19 C     6.0000    0    12.011   -2.821318    4.541475   -0.297403
  20 C     6.0000    0    12.011   -9.520202   -2.402336   -0.333466
  21 N     7.0000    0    14.007  -10.776779   -0.081310   -0.307905
  22 C     6.0000    0    12.011   -9.541846    2.268487   -0.287559
  23 C     6.0000    0    12.011    9.503353    2.355461   -0.416542
  24 N     7.0000    0    14.007   10.760161    0.034414   -0.419245
  25 C     6.0000    0    12.011    9.525519   -2.315572   -0.404250
  26 O     8.0000    0    15.999   10.667932    4.352168   -0.429086
  27 O     8.0000    0    15.999   10.701817   -4.304227   -0.402147
  28 O     8.0000    0    15.999  -10.685027   -4.398899   -0.345831
  29 O     8.0000    0    15.999  -10.717916    4.257079   -0.259568
  30 C     6.0000    0    12.011  -13.597331   -0.062383   -0.299016
  31 C     6.0000    0    12.011   13.580701    0.015701   -0.432434
  32 C     6.0000    0    12.011  -14.698105   -1.202182   -2.723376
  33 C     6.0000    0    12.011  -14.683297   -1.243894    2.112066
  34 C     6.0000    0    12.011  -13.551958   -0.148073    4.529165
  35 C     6.0000    0    12.011  -13.575171   -0.070373   -5.127852
  36 C     6.0000    0    12.011   14.663776    1.177934   -2.854158
  37 C     6.0000    0    12.011   14.684101    1.175148    1.981377
  38 C     6.0000    0    12.011   13.521387    0.070695   -5.260845
  39 C     6.0000    0    12.011   13.572634    0.054507    4.396374
  40 H     1.0000    0     1.008    1.813221    6.382503   -0.397192
  41 H     1.0000    0     1.008    6.449167    6.318381   -0.416921
  42 H     1.0000    0     1.008    6.508092   -6.304798   -0.383008
  43 H     1.0000    0     1.008    1.874691   -6.412369   -0.372559
  44 H     1.0000    0     1.008   -1.830596   -6.429803   -0.393621
  45 H     1.0000    0     1.008   -6.466397   -6.365298   -0.382701
  46 H     1.0000    0     1.008   -6.524014    6.257309   -0.256579
  47 H     1.0000    0     1.008   -1.890466    6.364556   -0.275251
  48 H     1.0000    0     1.008  -14.056792    1.953623   -0.280391
  49 H     1.0000    0     1.008   14.040403   -2.000331   -0.435658
  50 H     1.0000    0     1.008  -16.736951   -0.822248   -2.663473
  51 H     1.0000    0     1.008  -14.465052   -3.256259   -2.711897
  52 H     1.0000    0     1.008  -14.444145   -3.296790    2.065718
  53 H     1.0000    0     1.008  -16.723573   -0.869445    2.068200
  54 H     1.0000    0     1.008  -11.547047   -0.631716    4.711499
  55 H     1.0000    0     1.008  -14.519639   -0.895118    6.196856
  56 H     1.0000    0     1.008  -13.708667    1.916663    4.565180
  57 H     1.0000    0     1.008  -13.719014    1.995671   -5.125462
  58 H     1.0000    0     1.008  -14.558488   -0.780531   -6.802510
  59 H     1.0000    0     1.008  -11.574668   -0.563265   -5.331903
  60 H     1.0000    0     1.008   16.702641    0.795561   -2.813735
  61 H     1.0000    0     1.008   14.432659    3.231986   -2.820929
  62 H     1.0000    0     1.008   14.442362    3.228128    1.956774
  63 H     1.0000    0     1.008   16.724399    0.803598    1.918037
  64 H     1.0000    0     1.008   13.664419   -1.995330   -5.280673
  65 H     1.0000    0     1.008   14.491803    0.797395   -6.935938
  66 H     1.0000    0     1.008   11.519545    0.566303   -5.444225
  67 H     1.0000    0     1.008   11.569015    0.535201    4.599481
  68 H     1.0000    0     1.008   14.553251    0.785204    6.063747
  69 H     1.0000    0     1.008   13.730557   -2.010390    4.410083

--------------------------------
INTERNAL COORDINATES (ANGSTROEM)
--------------------------------
 C      0   0   0     0.000000000000     0.00000000     0.00000000
 C      1   0   0     1.461070576905     0.00000000     0.00000000
 C      2   1   0     1.424902787690   119.10796058     0.00000000
 C      3   2   1     1.424840807969   121.74915837     1.86266757
 C      4   3   2     1.461083046090   119.12285948   358.72576820
 C      1   2   3     1.424828662575   119.11673676   357.91059017
 C      2   1   3     1.394989205477   122.36463886   181.00545796
 C      7   2   1     1.392094852555   121.93190205   179.35015771
 C      8   7   2     1.382525428514   120.45768774   359.89256352
 C      9   8   7     1.408635634065   119.63427652     0.27424605
 C     10   9   8     1.408678689483   119.29575602   179.91795798
 C     11  10   9     1.382804770911   119.58684891   180.04467852
 C     12  11  10     1.392034784903   120.47218247   359.94001616
 C      5   4   3     1.395007299868   122.36433307   179.94769842
 C     14   5   4     1.392092680318   121.93259115   180.22934725
 C     15  14   5     1.382527734904   120.45808688     0.11308215
 C     16  15  14     1.408633248799   119.63353859   359.94382962
 C     17  16  15     1.408683332278   119.29609992   180.02706012
 C     18  17  16     1.382800918961   119.58784537   179.92305732
 C     19  18  17     1.392033896438   120.47183869     0.28130140
 C     16  15  14     1.478295943080   119.26983687   180.08872490
 N     21  16  15     1.396747430297   117.40545345   179.95858027
 C     22  21  16     1.404765725481   123.84745919   359.84587602
 C      9   8   7     1.478300947407   119.26896458   179.99938657
 N     24   9   8     1.396750395972   117.40549090   180.18212706
 C     25  24   9     1.404763758206   123.84750291   359.93000431
 O     24   9   8     1.223216645988   121.28306019     0.14152869
 O     26  25  24     1.222666273918   121.67860241   180.14927602
 O     21  16  15     1.223216135353   121.28374185   359.93984935
 O     23  22  21     1.222665075668   121.67807979   180.17111096
 C     22  21  16     1.492612780287   118.81544215   179.90339473
 C     25  24   9     1.492614432607   118.81487966   180.08553046
 C     31  22  21     1.532639045171   112.01052837   295.82518708
 C     31  22  21     1.532660613977   112.01345290    64.25640141
 C     34  31  22     1.526666257044   113.29556383    51.06018911
 C     33  31  22     1.526699020487   113.28554903   309.12443861
 C     32  25  24     1.532658717813   112.03581023   295.90212638
 C     32  25  24     1.532632234345   111.98781023    64.33043053
 C     37  32  25     1.526672076677   113.29298559   309.17994088
 C     38  32  25     1.526693055649   113.28906975    51.12037831
 H      7   2   1     1.083282018274   120.31295436   359.07389260
 H      8   7   2     1.085238899721   120.86691730   179.96768516
 H     12  11  10     1.085155206447   118.68866679   179.98481182
 H     13  12  11     1.083273006071   117.73211127   179.89081052
 H     14   5   4     1.083277974740   120.31681029     0.44291394
 H     15  14   5     1.085237064445   120.86626654   180.06235504
 H     19  18  17     1.085154939966   118.68841111   180.20654508
 H     20  19  18     1.083276141621   117.73669727   180.15611222
 H     31  22  21     1.094224449591   103.22432016   180.04623573
 H     32  25  24     1.094222899255   103.22554225   180.10921878
 H     33  31  22     1.097941760984   106.09596412   188.89663469
 H     33  31  22     1.093961460092   110.09218350    73.44248150
 H     34  31  22     1.093967447128   110.06316106   286.75194077
 H     34  31  22     1.097945774266   106.11013114   171.30914529
 H     35  34  31     1.095643029224   111.39449312   293.33465420
 H     35  34  31     1.094217024954   110.79165814   173.94013017
 H     35  34  31     1.095919591031   111.32061186    53.60778941
 H     36  33  31     1.095950868420   111.30664974   306.64778106
 H     36  33  31     1.094222231196   110.80282141   186.33524265
 H     36  33  31     1.095613291125   111.39713212    66.91965986
 H     37  32  25     1.097938973911   106.09491453   188.95337586
 H     37  32  25     1.093957383335   110.08824482    73.49497333
 H     38  32  25     1.093973366461   110.06487311   286.81203127
 H     38  32  25     1.097947008381   106.11132420   171.37051289
 H     39  37  32     1.095960481037   111.31520907   306.60371133
 H     39  37  32     1.094224645174   110.79788230   186.29634819
 H     39  37  32     1.095617206200   111.40004956    66.88402070
 H     40  38  32     1.095640623792   111.39213616   293.29273545
 H     40  38  32     1.094215106363   110.79499249   173.89479679
 H     40  38  32     1.095911204847   111.31262378    53.55904409

---------------------------
INTERNAL COORDINATES (A.U.)
---------------------------
 C      0   0   0     0.000000000000     0.00000000     0.00000000
 C      1   0   0     2.761023252680     0.00000000     0.00000000
 C      2   1   0     2.692676036195   119.10796058     0.00000000
 C      3   2   1     2.692558911496   121.74915837     1.86266757
 C      4   3   2     2.761046816026   119.12285948   358.72576820
 C      1   2   3     2.692535960027   119.11673676   357.91059017
 C      2   1   3     2.636147558128   122.36463886   181.00545796
 C      7   2   1     2.630678023770   121.93190205   179.35015771
 C      8   7   2     2.612594433074   120.45768774   359.89256352
 C      9   8   7     2.661935570866   119.63427652     0.27424605
 C     10   9   8     2.662016933815   119.29575602   179.91795798
 C     11  10   9     2.613122313702   119.58684891   180.04467852
 C     12  11  10     2.630564512358   120.47218247   359.94001616
 C      5   4   3     2.636181751571   122.36433307   179.94769842
 C     14   5   4     2.630673918837   121.93259115   180.22934725
 C     15  14   5     2.612598791519   120.45808688     0.11308215
 C     16  15  14     2.661931063367   119.63353859   359.94382962
 C     17  16  15     2.662025707424   119.29609992   180.02706012
 C     18  17  16     2.613115034572   119.58784537   179.92305732
 C     19  18  17     2.630562833403   120.47183869     0.28130140
 C     16  15  14     2.793574477309   119.26983687   180.08872490
 N     21  16  15     2.639470121519   117.40545345   179.95858027
 C     22  21  16     2.654622503478   123.84745919   359.84587602
 C      9   8   7     2.793583934116   119.26896458   179.99938657
 N     24   9   8     2.639475725832   117.40549090   180.18212706
 C     25  24   9     2.654618785868   123.84750291   359.93000431
 O     24   9   8     2.311544463371   121.28306019     0.14152869
 O     26  25  24     2.310504410888   121.67860241   180.14927602
 O     21  16  15     2.311543498411   121.28374185   359.93984935
 O     23  22  21     2.310502146522   121.67807979   180.17111096
 C     22  21  16     2.820629378734   118.81544215   179.90339473
 C     25  24   9     2.820632501165   118.81487966   180.08553046
 C     31  22  21     2.896268057529   112.01052837   295.82518708
 C     31  22  21     2.896308816664   112.01345290    64.25640141
 C     34  31  22     2.884981123713   113.29556383    51.06018911
 C     33  31  22     2.885043037646   113.28554903   309.12443861
 C     32  25  24     2.896305233433   112.03581023   295.90212638
 C     32  25  24     2.896255186932   111.98781023    64.33043053
 C     37  32  25     2.884992121225   113.29298559   309.17994088
 C     38  32  25     2.885031765736   113.28906975    51.12037831
 H      7   2   1     2.047106340339   120.31295436   359.07389260
 H      8   7   2     2.050804310350   120.86691730   179.96768516
 H     12  11  10     2.050646152983   118.68866679   179.98481182
 H     13  12  11     2.047089309743   117.73211127   179.89081052
 H     14   5   4     2.047098699168   120.31681029     0.44291394
 H     15  14   5     2.050800842182   120.86626654   180.06235504
 H     19  18  17     2.050645649408   118.68841111   180.20654508
 H     20  19  18     2.047095235075   117.73669727   180.15611222
 H     31  22  21     2.067784538768   103.22432016   180.04623573
 H     32  25  24     2.067781609058   103.22554225   180.10921878
 H     33  31  22     2.074809239255   106.09596412   188.89663469
 H     33  31  22     2.067287560638   110.09218350    73.44248150
 H     34  31  22     2.067298874497   110.06316106   286.75194077
 H     34  31  22     2.074816823259   106.11013114   171.30914529
 H     35  34  31     2.070465265774   111.39449312   293.33465420
 H     35  34  31     2.067770508238   110.79165814   173.94013017
 H     35  34  31     2.070987891848   111.32061186    53.60778941
 H     36  33  31     2.071046997547   111.30664974   306.64778106
 H     36  33  31     2.067780346609   110.80282141   186.33524265
 H     36  33  31     2.070409068910   111.39713212    66.91965986
 H     37  32  25     2.074803972450   106.09491453   188.95337586
 H     37  32  25     2.067279856685   110.08824482    73.49497333
 H     38  32  25     2.067310060416   110.06487311   286.81203127
 H     38  32  25     2.074819155399   106.11132420   171.37051289
 H     39  37  32     2.071065162761   111.31520907   306.60371133
 H     39  37  32     2.067784908365   110.79788230   186.29634819
 H     39  37  32     2.070416467329   111.40004956    66.88402070
 H     40  38  32     2.070460720165   111.39213616   293.29273545
 H     40  38  32     2.067766882626   110.79499249   173.89479679
 H     40  38  32     2.070972044257   111.31262378    53.55904409

---------------------
BASIS SET INFORMATION
---------------------
There are 4 groups of distinct atoms

 Group   1 Type C   : 11s5p1d contracted to 4s3p1d pattern {6311/311/1}
 Group   2 Type N   : 11s5p1d contracted to 4s3p1d pattern {6311/311/1}
 Group   3 Type O   : 11s5p1d contracted to 4s3p1d pattern {6311/311/1}
 Group   4 Type H   : 4s1p contracted to 2s1p pattern {31/1}

Atom   0C    basis set group =>   1
Atom   1C    basis set group =>   1
Atom   2C    basis set group =>   1
Atom   3C    basis set group =>   1
Atom   4C    basis set group =>   1
Atom   5C    basis set group =>   1
Atom   6C    basis set group =>   1
Atom   7C    basis set group =>   1
Atom   8C    basis set group =>   1
Atom   9C    basis set group =>   1
Atom  10C    basis set group =>   1
Atom  11C    basis set group =>   1
Atom  12C    basis set group =>   1
Atom  13C    basis set group =>   1
Atom  14C    basis set group =>   1
Atom  15C    basis set group =>   1
Atom  16C    basis set group =>   1
Atom  17C    basis set group =>   1
Atom  18C    basis set group =>   1
Atom  19C    basis set group =>   1
Atom  20C    basis set group =>   1
Atom  21N    basis set group =>   2
Atom  22C    basis set group =>   1
Atom  23C    basis set group =>   1
Atom  24N    basis set group =>   2
Atom  25C    basis set group =>   1
Atom  26O    basis set group =>   3
Atom  27O    basis set group =>   3
Atom  28O    basis set group =>   3
Atom  29O    basis set group =>   3
Atom  30C    basis set group =>   1
Atom  31C    basis set group =>   1
Atom  32C    basis set group =>   1
Atom  33C    basis set group =>   1
Atom  34C    basis set group =>   1
Atom  35C    basis set group =>   1
Atom  36C    basis set group =>   1
Atom  37C    basis set group =>   1
Atom  38C    basis set group =>   1
Atom  39C    basis set group =>   1
Atom  40H    basis set group =>   4
Atom  41H    basis set group =>   4
Atom  42H    basis set group =>   4
Atom  43H    basis set group =>   4
Atom  44H    basis set group =>   4
Atom  45H    basis set group =>   4
Atom  46H    basis set group =>   4
Atom  47H    basis set group =>   4
Atom  48H    basis set group =>   4
Atom  49H    basis set group =>   4
Atom  50H    basis set group =>   4
Atom  51H    basis set group =>   4
Atom  52H    basis set group =>   4
Atom  53H    basis set group =>   4
Atom  54H    basis set group =>   4
Atom  55H    basis set group =>   4
Atom  56H    basis set group =>   4
Atom  57H    basis set group =>   4
Atom  58H    basis set group =>   4
Atom  59H    basis set group =>   4
Atom  60H    basis set group =>   4
Atom  61H    basis set group =>   4
Atom  62H    basis set group =>   4
Atom  63H    basis set group =>   4
Atom  64H    basis set group =>   4
Atom  65H    basis set group =>   4
Atom  66H    basis set group =>   4
Atom  67H    basis set group =>   4
Atom  68H    basis set group =>   4
Atom  69H    basis set group =>   4
---------------------------------
AUXILIARY/J BASIS SET INFORMATION
---------------------------------
There are 4 groups of distinct atoms

 Group   1 Type C   : 12s5p4d2f1g contracted to 6s4p3d1f1g pattern {711111/2111/211/2/1}
 Group   2 Type N   : 12s5p4d2f1g contracted to 6s4p3d1f1g pattern {711111/2111/211/2/1}
 Group   3 Type O   : 12s5p4d2f1g contracted to 6s4p3d1f1g pattern {711111/2111/211/2/1}
 Group   4 Type H   : 5s2p1d contracted to 3s1p1d pattern {311/2/1}

Atom   0C    basis set group =>   1
Atom   1C    basis set group =>   1
Atom   2C    basis set group =>   1
Atom   3C    basis set group =>   1
Atom   4C    basis set group =>   1
Atom   5C    basis set group =>   1
Atom   6C    basis set group =>   1
Atom   7C    basis set group =>   1
Atom   8C    basis set group =>   1
Atom   9C    basis set group =>   1
Atom  10C    basis set group =>   1
Atom  11C    basis set group =>   1
Atom  12C    basis set group =>   1
Atom  13C    basis set group =>   1
Atom  14C    basis set group =>   1
Atom  15C    basis set group =>   1
Atom  16C    basis set group =>   1
Atom  17C    basis set group =>   1
Atom  18C    basis set group =>   1
Atom  19C    basis set group =>   1
Atom  20C    basis set group =>   1
Atom  21N    basis set group =>   2
Atom  22C    basis set group =>   1
Atom  23C    basis set group =>   1
Atom  24N    basis set group =>   2
Atom  25C    basis set group =>   1
Atom  26O    basis set group =>   3
Atom  27O    basis set group =>   3
Atom  28O    basis set group =>   3
Atom  29O    basis set group =>   3
Atom  30C    basis set group =>   1
Atom  31C    basis set group =>   1
Atom  32C    basis set group =>   1
Atom  33C    basis set group =>   1
Atom  34C    basis set group =>   1
Atom  35C    basis set group =>   1
Atom  36C    basis set group =>   1
Atom  37C    basis set group =>   1
Atom  38C    basis set group =>   1
Atom  39C    basis set group =>   1
Atom  40H    basis set group =>   4
Atom  41H    basis set group =>   4
Atom  42H    basis set group =>   4
Atom  43H    basis set group =>   4
Atom  44H    basis set group =>   4
Atom  45H    basis set group =>   4
Atom  46H    basis set group =>   4
Atom  47H    basis set group =>   4
Atom  48H    basis set group =>   4
Atom  49H    basis set group =>   4
Atom  50H    basis set group =>   4
Atom  51H    basis set group =>   4
Atom  52H    basis set group =>   4
Atom  53H    basis set group =>   4
Atom  54H    basis set group =>   4
Atom  55H    basis set group =>   4
Atom  56H    basis set group =>   4
Atom  57H    basis set group =>   4
Atom  58H    basis set group =>   4
Atom  59H    basis set group =>   4
Atom  60H    basis set group =>   4
Atom  61H    basis set group =>   4
Atom  62H    basis set group =>   4
Atom  63H    basis set group =>   4
Atom  64H    basis set group =>   4
Atom  65H    basis set group =>   4
Atom  66H    basis set group =>   4
Atom  67H    basis set group =>   4
Atom  68H    basis set group =>   4
Atom  69H    basis set group =>   4

Checking for AutoStart:
The File: pdi_terminal_functionalized_tda_singlets.gbw exists
Trying to determine its content:
     ... Fine, the file contains calculation information
     ... Fine, the calculation information was read
     ... Fine, the file contains a basis set
     ... Fine, the basis set was read
     ... Fine, the file contains a geometry
     ... Fine, the geometry was read
     ... Fine, the file contains a set of orbitals
     ... Fine, the orbitals can be read
     => possible old guess file was deleted
     => GBW file was renamed to GES file
     => GES file is set as startup file
     => Guess is set to MORead
     ... now leaving AutoStart



           ************************************************************
           *        Program running with 8 parallel MPI-processes     *
           *              working on a common directory               *
           ************************************************************
------------------------------------------------------------------------------
                             ORCA STARTUP CALCULATIONS
                           -- RI-GTO INTEGRALS CHOSEN --
------------------------------------------------------------------------------
------------------------------------------------------------------------------
                   ___                                                        
                  /   \      - P O W E R E D   B Y -                         
                 /     \                                                     
                 |  |  |   _    _      __       _____    __    __             
                 |  |  |  | |  | |    /  \     |  _  \  |  |  /  |          
                  \  \/   | |  | |   /    \    | | | |  |  | /  /          
                 / \  \   | |__| |  /  /\  \   | |_| |  |  |/  /          
                |  |  |   |  __  | /  /__\  \  |    /   |      \           
                |  |  |   | |  | | |   __   |  |    \   |  |\   \          
                \     /   | |  | | |  |  |  |  | |\  \  |  | \   \       
                 \___/    |_|  |_| |__|  |__|  |_| \__\ |__|  \__/        
                                                                              
                      - O R C A' S   B I G   F R I E N D -                    
                                      &                                       
                       - I N T E G R A L  F E E D E R -                       
                                                                              
 v1 FN, 2020, v2 2021, v3 2022-2024                                           
------------------------------------------------------------------------------


----------------------
SHARK INTEGRAL PACKAGE
----------------------

Number of atoms                             ...     70
Number of basis functions                   ...    870
Number of shells                            ...    410
Maximum angular momentum                    ...      2
Integral batch strategy                     ... SHARK/LIBINT Hybrid
RI-J (if used) integral strategy            ... SPLIT-RIJ (Revised 2003 algorithm where possible)
Printlevel                                  ...      1
Contraction scheme used                     ... SEGMENTED contraction
Prescreening option                         ... SCHWARTZ
   Thresh                                   ... 2.500e-11
   Tcut                                     ... 2.500e-12
   Tpresel                                  ... 2.500e-12 
Coulomb Range Separation                    ... NOT USED
Exchange Range Separation                   ... Long Range
   Mu parameter                             ... 2.500e-01
   Scaling (regular/separated)              ... 1.957e-01 8.043e-01
Robust (split-)RI terms used:
  metric    (central integrals)             ... YES
  density   (r.h.s.  integrals)             ... YES
  potential (l.h.s.  integrals)             ... YES
Multipole approximations                    ... NOT USED
Finite Nucleus Model                        ... NOT USED
CABS basis                                  ... NOT available
Auxiliary Coulomb fitting basis             ... AVAILABLE
   # of basis functions in Aux-J            ...   2290
   # of shells in Aux-J                     ...    750
   Maximum angular momentum in Aux-J        ...      4
Auxiliary J/K fitting basis                 ... NOT available
Auxiliary Correlation fitting basis         ... NOT available
Auxiliary 'external' fitting basis          ... NOT available

Checking pre-screening integrals            ... done (  0.0 sec) Dimension = 410
   => SHARK Basis and OBASIS are compatible. Storing Pre-screening
Shell pair information
Shell pair cut-off parameter TPreSel        ...   2.5e-12
Total number of shell pairs                 ...     84255
Shell pairs after pre-screening             ...     53468
Total number of primitive shell pairs       ...    345795
Primitive shell pairs kept                  ...    131563
          la=0 lb=0:  14823 shell pairs
          la=1 lb=0:  21942 shell pairs
          la=1 lb=1:   8107 shell pairs
          la=2 lb=0:   4647 shell pairs
          la=2 lb=1:   3604 shell pairs
          la=2 lb=2:    345 shell pairs

Checking whether 4 symmetric matrices of dimension 870 fit in memory
:Max Core in MB      =   1200.00
 MB in use           =     55.57
 MB left             =   1144.43
 MB needed           =     11.56
 Data fit in memory  = YES
Calculating RI/J V-Matrix + Cholesky decomp.... done (  0.4 sec)
Calculating Nuclear repulsion               ... done (  0.0 sec) ENN=   4340.063956306825 Eh

Diagonalization of the overlap matrix:
Smallest eigenvalue                        ... 3.281e-09
Time for diagonalization                   ...    0.088 sec
Threshold for overlap eigenvalues          ... 1.000e-07
Number of eigenvalues below threshold      ... 11
Smallest eigenvalue above threshold        ... 1.081e-07

IMPORTANT:
Smallest eigenvalue of S below the DiffSThresh (1.000e-06) while
Thresh>1e-12 and/or TCut>1e-13! In order to avoid SCF convergence issues,
Thresh will be set to at least 1e-12 and TCut to at least 1e-13.
This can be turned off by adding %SCF DiffSThresh -1 END to the input.

Time for construction of square roots      ...    0.073 sec
Total time needed                          ...    0.216 sec

-------------------
DFT GRID GENERATION
-------------------

General Integration Accuracy     IntAcc      ... 4.388
Radial Grid Type                 RadialGrid  ... OptM3 with GC (2021)
Angular Grid (max. ang.)         AngularGrid ... 4 (Lebedev-302)
Angular grid pruning method      GridPruning ... 4 (adaptive)
Weight generation scheme         WeightScheme... mBecke (2022)
Basis function cutoff            BFCut       ... 1.0000e-11
Integration weight cutoff        WCut        ... 1.0000e-14
Partially contracted basis set               ... off
Rotationally invariant grid construction     ... off
Angular grids for H and He will be reduced by one unit
Diffuse basis detected: some atoms will have their outermost
                        angular grid increased by 1.

Total number of grid points                  ...   340481
Total number of batches                      ...     5353
Average number of points per batch           ...       63
Average number of grid points per atom       ...     4864

--------------------
COSX GRID GENERATION
--------------------

GRIDX 1
-------
General Integration Accuracy     IntAcc      ... 3.816
Radial Grid Type                 RadialGrid  ... OptM3 with GC (2021)
Angular Grid (max. ang.)         AngularGrid ... 1 (Lebedev-50)
Angular grid pruning method      GridPruning ... 4 (adaptive)
Weight generation scheme         WeightScheme... mBecke (2022)
Basis function cutoff            BFCut       ... 1.0000e-11
Integration weight cutoff        WCut        ... 1.0000e-14
Partially contracted basis set               ... on
Rotationally invariant grid construction     ... off
Angular grids for H and He will be reduced by one unit
Diffuse basis detected: some atoms will have their outermost
                        angular grid increased by 1.

Total number of grid points                  ...    43188
Total number of batches                      ...      374
Average number of points per batch           ...      115
Average number of grid points per atom       ...      617
UseSFitting                                  ... on

GRIDX 2
-------
General Integration Accuracy     IntAcc      ... 4.020
Radial Grid Type                 RadialGrid  ... OptM3 with GC (2021)
Angular Grid (max. ang.)         AngularGrid ... 2 (Lebedev-110)
Angular grid pruning method      GridPruning ... 4 (adaptive)
Weight generation scheme         WeightScheme... mBecke (2022)
Basis function cutoff            BFCut       ... 1.0000e-11
Integration weight cutoff        WCut        ... 1.0000e-14
Partially contracted basis set               ... on
Rotationally invariant grid construction     ... off
Angular grids for H and He will be reduced by one unit
Diffuse basis detected: some atoms will have their outermost
                        angular grid increased by 1.

Total number of grid points                  ...    99105
Total number of batches                      ...      813
Average number of points per batch           ...      121
Average number of grid points per atom       ...     1416
UseSFitting                                  ... on

GRIDX 3
-------
General Integration Accuracy     IntAcc      ... 4.338
Radial Grid Type                 RadialGrid  ... OptM3 with GC (2021)
Angular Grid (max. ang.)         AngularGrid ... 3 (Lebedev-194)
Angular grid pruning method      GridPruning ... 4 (adaptive)
Weight generation scheme         WeightScheme... mBecke (2022)
Basis function cutoff            BFCut       ... 1.0000e-11
Integration weight cutoff        WCut        ... 1.0000e-14
Partially contracted basis set               ... on
Rotationally invariant grid construction     ... off
Angular grids for H and He will be reduced by one unit
Diffuse basis detected: some atoms will have their outermost
                        angular grid increased by 1.

Total number of grid points                  ...   214342
Total number of batches                      ...     1712
Average number of points per batch           ...      125
Average number of grid points per atom       ...     3062
UseSFitting                                  ... on
Grids setup in   8.4 sec
Initializing property integral containers    ... done (  0.0 sec)

SHARK setup successfully completed in   9.6 seconds

Maximum memory used throughout the entire STARTUP-calculation: 119.1 MB


           ************************************************************
           *        Program running with 8 parallel MPI-processes     *
           *              working on a common directory               *
           ************************************************************
-------------------------------------------------------------------------------
                                 ORCA GUESS
                   Start orbitals & Density for SCF / CASSCF
-------------------------------------------------------------------------------

------------
SCF SETTINGS
------------
Hamiltonian:
 Density Functional     Method          .... DFT(GTOs)
 Exchange Functional    Exchange        .... WB97X-D3
 Correlation Functional Correlation     .... WB97X-D3
 Gradients option       PostSCFGGA      .... off
 Hybrid DFT is turned on
   Fraction HF Exchange ScalHFX         ....  0.195728
   Scaling of DF-GGA-X  ScalDFX         ....  0.000000
   Scaling of DF-GGA-C  ScalDFC         ....  1.000000
   Scaling of DF-LDA-C  ScalLDAC        ....  1.000000
   Perturbative correction              ....  0.000000
 Long-range corrected/Screened/Range-Separated Hybrid DFT is turned on
   Amount of maximum screened exact exchange              ....  0.804272
   Range separation parameter mu (erf(mu*r12)/r12)        ....  0.250000
 RI-approximation to the Coulomb term is turned on
   Number of AuxJ basis functions       .... 2290
   RIJ-COSX (HFX calculated with COS-X)).... on


General Settings:
 Integral files         IntName         .... pdi_terminal_functionalized_tda_singlets
 Hartree-Fock type      HFTyp           .... RHF
 Total Charge           Charge          ....    0
 Multiplicity           Mult            ....    1
 Number of Electrons    NEL             ....  280
 Basis Dimension        Dim             ....  870
 Nuclear Repulsion      ENuc            ....   4340.0639563068 Eh

Convergence Acceleration:
 AO-DIIS                CNVDIIS         .... on
   Start iteration      DIISMaxIt       ....    12
   Startup error        DIISStart       ....  0.200000
   # of expansion vecs  DIISMaxEq       ....     5
   Bias factor          DIISBfac        ....   1.050
   Max. coefficient     DIISMaxC        ....  10.000
 MO-DIIS                CNVKDIIS        .... off
 Trust-Rad. Augm. Hess. CNVTRAH         .... auto
   Auto Start mean grad. ratio tolernc. ....  1.125000
   Auto Start start iteration           ....     1
   Auto Start num. interpolation iter.  ....    10
   Max. Number of Micro iterations      ....    24
   Max. Number of Macro iterations      .... Maxiter - #DIIS iter
   Number of Davidson start vectors     ....     2
   Converg. threshold    (grad. norm)   ....   1.000e-05
   Grad. Scal. Fac. for Micro threshold ....   0.100
   Minimum threshold for Micro iter.    ....   1.000e-02
   NR start threshold (gradient norm)   ....   1.000e-04
   Initial trust radius                 ....   0.400
   Minimum AH scaling param. (alpha)    ....   1.000
   Maximum AH scaling param. (alpha)    .... 1000.000
   Quad. conv. algorithm                .... NR
   White noise on init. David. guess    .... on
   Maximum white noise                  ....   0.010
   Pseudo random numbers                .... off
   Inactive MOs                         .... canonical
   Orbital update algorithm             .... Taylor
   Preconditioner                       .... Diag
   Full preconditioner red. dimension   ....   250
 SOSCF                 CNVSOSCF           .... on
   Start iteration     SOSCFMaxIt         ....   150
   Startup grad/error  SOSCFStart         ....  0.003300
   Hessian update      SOSCFHessUp        .... L-BFGS
   Autom. constraints  SOSCFAutoConstrain .... off
 Level Shifting         CNVShift        .... on
   Level shift para.    LevelShift      ....    0.2500
   Turn off err/grad.   ShiftErr        ....    0.0010
 Zerner damping         CNVZerner       .... off
 Static damping         CNVDamp         .... on
   Fraction old density DampFac         ....    0.7000
   Max. Damping (<1)    DampMax         ....    0.9800
   Min. Damping (>=0)   DampMin         ....    0.0000
   Turn off err/grad.   DampErr         ....    0.1000

SCF Procedure:
 Maximum # iterations   MaxIter         ....   125
 SCF integral mode      SCFMode         .... Direct
   Integral package                     .... SHARK and LIBINT hybrid scheme
 Reset frequency        DirectResetFreq ....    20
 Integral Threshold     Thresh          ....  1.000e-12 Eh
 Primitive CutOff       TCut            ....  1.000e-13 Eh

Convergence Tolerance:
 Convergence Check Mode ConvCheckMode   .... Total+1el-Energy
 Convergence forced     ConvForced      .... 1
 Energy Change          TolE            ....  1.000e-08 Eh
 1-El. energy change                    ....  1.000e-05 Eh
 Orbital Gradient       TolG            ....  1.000e-05
 Orbital Rotation angle TolX            ....  1.000e-05
 DIIS Error             TolErr          ....  5.000e-07

---------------------
INITIAL GUESS: MOREAD
---------------------
Guess MOs are being read from file: pdi_terminal_functionalized_tda_singlets.ges
Input Geometry matches current geometry (good)
Input basis set matches current basis set (good)
Occupation numbers will be reassigned to an Aufbau configuration
MOs were renormalized
MOs were reorthogonalized (Cholesky)
                      ------------------
                      INITIAL GUESS DONE (   0.3 sec)
                      ------------------
             **** ENERGY FILE WAS UPDATED (pdi_terminal_functionalized_tda_singlets.en.tmp) ****
Finished Guess after   1.3 sec
Maximum memory used throughout the entire GUESS-calculation: 91.2 MB


           ************************************************************
           *        Program running with 8 parallel MPI-processes     *
           *              working on a common directory               *
           ************************************************************

-------------------------------------------------------------------------------------------
                                      ORCA LEAN-SCF
                              memory conserving SCF solver
-------------------------------------------------------------------------------------------

--------------------
CPCM SOLVATION MODEL
--------------------
CPCM parameters:
  Epsilon                                         ...      78.3550
  Refrac                                          ...       1.3328
  Rsolv                                           ...       1.3000
  Surface type                                    ... GAUSSIAN VDW
  Discretization scheme                           ... Constant charge density
    Threshold for H atoms                         ...       5.0000 (charges/Ang^2)
    Threshold for non-H atoms                     ...       5.0000 (charges/Ang^2)
  Epsilon function type                           ...         CPCM
Solvent:                                          ... WATER
SMD-CDS solvent descriptors:
  Soln                                            ...       1.3328
  Soln25                                          ...       1.3323
  Sola                                            ...       0.0000
  Solb                                            ...       0.0000
  Solg                                            ...       0.0000
  Solc                                            ...       0.0000
  Solh                                            ...       0.0000
Radii:
  Scheme                                          ... Element-dependent radii
  Radius for C  used is    3.4960 Bohr (=   1.8500 Ang.)
  Radius for N  used is    3.5716 Bohr (=   1.8900 Ang.)
  Radius for O  used is    2.8724 Bohr (=   1.5200 Ang.)
  Radius for H  used is    2.2677 Bohr (=   1.2000 Ang.)
Calculating surface                               ...        done! (  0.0s)
Cavity surface points                             ...         4843
Cavity Volume                                     ...    3418.1725
Cavity Surface-area                               ...    1821.7397
Calculating surface distance matrix               ...        done! (  0.1s)
Performing Cholesky decomposition & store         ...        done! (  1.1s)
Overall time for CPCM initialization              ...                 1.2s

----------------------------------------D-I-I-S--------------------------------------------
Iteration    Energy (Eh)           Delta-E    RMSDP     MaxDP     DIISErr   Damp  Time(sec)
-------------------------------------------------------------------------------------------
               ***  Starting incremental Fock matrix formation  ***
                              *** Initializing SOSCF ***
---------------------------------------S-O-S-C-F--------------------------------------
Iteration    Energy (Eh)           Delta-E    RMSDP     MaxDP     MaxGrad    Time(sec)
--------------------------------------------------------------------------------------
    1    -1723.8726028137662070     0.00e+00  1.41e-02  8.34e-01  4.54e-05    43.0
               *** Restarting incremental Fock matrix formation ***
    2    -1723.8726037067135621    -8.93e-07  3.66e-03  1.90e-01  8.58e-05    44.0
    3    -1723.8726035193531061     1.87e-07  1.34e-03  6.16e-02  1.11e-04    32.5
    4    -1723.8726044628920135    -9.44e-07  4.76e-03  2.85e-01  1.48e-05    30.5
    5    -1723.8726044576433196     5.25e-09  1.89e-03  8.91e-02  6.86e-06    32.3
                 **** Energy Check signals convergence ****

               *****************************************************
               *                     SUCCESS                       *
               *           SCF CONVERGED AFTER   5 CYCLES          *
               *****************************************************

Recomputing exchange energy using gridx3       ... done (   82.060 sec)
Old exchange energy                            :    -75.656553604 Eh
New exchange energy                            :    -75.656526713 Eh
Exchange energy change after final integration :      0.000026891 Eh
Total energy after final integration           :  -1723.872577549 Eh

SMD CDS free energy correction energy :                11.73224     Kcal/mol
Total Energy after SMD CDS correction =             -1723.853881041 Eh
             **** ENERGY FILE WAS UPDATED (pdi_terminal_functionalized_tda_singlets.en.tmp) ****

----------------
TOTAL SCF ENERGY
----------------

Total Energy       :      -1723.85388104060075 Eh          -46908.44888 eV

Components:
Nuclear Repulsion  :       4340.06395630682528 Eh          118099.14430 eV
Electronic Energy  :      -6063.88817331797782 Eh         -165006.78598 eV
One Electron Energy:     -10972.45619858363716 Eh         -298575.71246 eV
Two Electron Energy:       4908.56802526565934 Eh          133568.92648 eV
CPCM Dielectric    :         -0.04838742917678 Eh              -1.31669 eV
SMD CDS (Gcds)     :          0.01869650870025 Eh               0.50876 eV

Virial components:
Potential Energy   :      -3435.80931632896318 Eh          -93493.12460 eV
Kinetic Energy     :       1711.95543528836220 Eh           46584.67571 eV
Virial Ratio       :          2.00695020764383

DFT components:
N(Alpha)           :      140.000656745917 electrons
N(Beta)            :      140.000656745917 electrons
N(Total)           :      280.001313491834 electrons
E(XC)              :     -168.140381828464 Eh       

CPCM Solvation Model Properties:
Surface-charge          :         -0.08979956883657
Corrected charge        :         -0.00000000000000
Outlying charge corr.   :          0.00034813675962 Eh               0.00947 eV
Free-energy (cav+disp)  :          0.01869650870025 Eh               0.50876 eV

---------------
SCF CONVERGENCE
---------------

  Last Energy change         ...   -5.2487e-09  Tolerance :   1.0000e-08
  Last MAX-Density change    ...    8.9100e-02  Tolerance :   1.0000e-07
  Last RMS-Density change    ...    1.8914e-03  Tolerance :   5.0000e-09
  Last DIIS Error            ...    3.1324e-04  Tolerance :   5.0000e-07
  Last Orbital Gradient      ...    6.8601e-06  Tolerance :   1.0000e-05
  Last Orbital Rotation      ...    4.4847e-05  Tolerance :   1.0000e-05


----------------
ORBITAL ENERGIES
----------------

  NO   OCC          E(Eh)            E(eV) 
   0   2.0000     -19.258973      -524.0633 
   1   2.0000     -19.258972      -524.0633 
   2   2.0000     -19.256251      -523.9892 
   3   2.0000     -19.256249      -523.9892 
   4   2.0000     -14.502079      -394.6216 
   5   2.0000     -14.502078      -394.6216 
   6   2.0000     -10.431444      -283.8540 
   7   2.0000     -10.431443      -283.8540 
   8   2.0000     -10.429445      -283.7996 
   9   2.0000     -10.429444      -283.7996 
  10   2.0000     -10.334847      -281.2255 
  11   2.0000     -10.334824      -281.2249 
  12   2.0000     -10.334472      -281.2153 
  13   2.0000     -10.334448      -281.2146 
  14   2.0000     -10.330153      -281.0978 
  15   2.0000     -10.330152      -281.0977 
  16   2.0000     -10.328085      -281.0415 
  17   2.0000     -10.328070      -281.0411 
  18   2.0000     -10.324733      -280.9503 
  19   2.0000     -10.324729      -280.9502 
  20   2.0000     -10.321443      -280.8607 
  21   2.0000     -10.321442      -280.8607 
  22   2.0000     -10.320783      -280.8428 
  23   2.0000     -10.320781      -280.8427 
  24   2.0000     -10.318061      -280.7687 
  25   2.0000     -10.318059      -280.7686 
  26   2.0000     -10.317704      -280.7590 
  27   2.0000     -10.317702      -280.7589 
  28   2.0000     -10.311801      -280.5984 
  29   2.0000     -10.311788      -280.5980 
  30   2.0000     -10.311771      -280.5975 
  31   2.0000     -10.311758      -280.5972 
  32   2.0000     -10.277988      -279.6783 
  33   2.0000     -10.277985      -279.6782 
  34   2.0000     -10.277958      -279.6775 
  35   2.0000     -10.277953      -279.6773 
  36   2.0000     -10.268271      -279.4139 
  37   2.0000     -10.268268      -279.4138 
  38   2.0000     -10.268252      -279.4133 
  39   2.0000     -10.268249      -279.4133 
  40   2.0000      -1.200619       -32.6705 
  41   2.0000      -1.200618       -32.6705 
  42   2.0000      -1.182899       -32.1883 
  43   2.0000      -1.182898       -32.1883 
  44   2.0000      -1.072712       -29.1900 
  45   2.0000      -1.072485       -29.1838 
  46   2.0000      -1.045520       -28.4500 
  47   2.0000      -1.020786       -27.7770 
  48   2.0000      -0.984866       -26.7996 
  49   2.0000      -0.970006       -26.3952 
  50   2.0000      -0.963517       -26.2186 
  51   2.0000      -0.931503       -25.3475 
  52   2.0000      -0.917100       -24.9556 
  53   2.0000      -0.904866       -24.6227 
  54   2.0000      -0.894001       -24.3270 
  55   2.0000      -0.891353       -24.2549 
  56   2.0000      -0.879118       -23.9220 
  57   2.0000      -0.867627       -23.6093 
  58   2.0000      -0.867626       -23.6093 
  59   2.0000      -0.855690       -23.2845 
  60   2.0000      -0.815897       -22.2017 
  61   2.0000      -0.811831       -22.0911 
  62   2.0000      -0.800004       -21.7692 
  63   2.0000      -0.781535       -21.2666 
  64   2.0000      -0.778422       -21.1819 
  65   2.0000      -0.770233       -20.9591 
  66   2.0000      -0.761241       -20.7144 
  67   2.0000      -0.741844       -20.1866 
  68   2.0000      -0.739756       -20.1298 
  69   2.0000      -0.731292       -19.8995 
  70   2.0000      -0.707815       -19.2606 
  71   2.0000      -0.707812       -19.2606 
  72   2.0000      -0.704711       -19.1762 
  73   2.0000      -0.693784       -18.8788 
  74   2.0000      -0.673578       -18.3290 
  75   2.0000      -0.665883       -18.1196 
  76   2.0000      -0.656651       -17.8684 
  77   2.0000      -0.637988       -17.3605 
  78   2.0000      -0.632259       -17.2046 
  79   2.0000      -0.618068       -16.8185 
  80   2.0000      -0.610284       -16.6067 
  81   2.0000      -0.598598       -16.2887 
  82   2.0000      -0.596922       -16.2431 
  83   2.0000      -0.596367       -16.2280 
  84   2.0000      -0.592665       -16.1272 
  85   2.0000      -0.592521       -16.1233 
  86   2.0000      -0.578316       -15.7368 
  87   2.0000      -0.574682       -15.6379 
  88   2.0000      -0.567262       -15.4360 
  89   2.0000      -0.560021       -15.2389 
  90   2.0000      -0.554957       -15.1012 
  91   2.0000      -0.550272       -14.9737 
  92   2.0000      -0.548777       -14.9330 
  93   2.0000      -0.541833       -14.7440 
  94   2.0000      -0.541228       -14.7276 
  95   2.0000      -0.539141       -14.6708 
  96   2.0000      -0.530811       -14.4441 
  97   2.0000      -0.529334       -14.4039 
  98   2.0000      -0.527814       -14.3625 
  99   2.0000      -0.523659       -14.2495 
 100   2.0000      -0.520594       -14.1661 
 101   2.0000      -0.514233       -13.9930 
 102   2.0000      -0.513460       -13.9720 
 103   2.0000      -0.510572       -13.8934 
 104   2.0000      -0.505581       -13.7576 
 105   2.0000      -0.504782       -13.7358 
 106   2.0000      -0.499050       -13.5798 
 107   2.0000      -0.494667       -13.4606 
 108   2.0000      -0.492782       -13.4093 
 109   2.0000      -0.491872       -13.3845 
 110   2.0000      -0.487015       -13.2524 
 111   2.0000      -0.482092       -13.1184 
 112   2.0000      -0.481918       -13.1137 
 113   2.0000      -0.468839       -12.7577 
 114   2.0000      -0.459450       -12.5023 
 115   2.0000      -0.454701       -12.3730 
 116   2.0000      -0.446336       -12.1454 
 117   2.0000      -0.446314       -12.1448 
 118   2.0000      -0.441822       -12.0226 
 119   2.0000      -0.440565       -11.9884 
 120   2.0000      -0.435296       -11.8450 
 121   2.0000      -0.434008       -11.8100 
 122   2.0000      -0.428417       -11.6578 
 123   2.0000      -0.426693       -11.6109 
 124   2.0000      -0.426350       -11.6016 
 125   2.0000      -0.424197       -11.5430 
 126   2.0000      -0.422124       -11.4866 
 127   2.0000      -0.417748       -11.3675 
 128   2.0000      -0.415796       -11.3144 
 129   2.0000      -0.383781       -10.4432 
 130   2.0000      -0.383753       -10.4425 
 131   2.0000      -0.378100       -10.2886 
 132   2.0000      -0.377669       -10.2769 
 133   2.0000      -0.376391       -10.2421 
 134   2.0000      -0.371001       -10.0954 
 135   2.0000      -0.359529        -9.7833 
 136   2.0000      -0.357479        -9.7275 
 137   2.0000      -0.353362        -9.6155 
 138   2.0000      -0.349517        -9.5108 
 139   2.0000      -0.282802        -7.6954 
 140   0.0000      -0.070958        -1.9309 
 141   0.0000      -0.001387        -0.0377 
 142   0.0000       0.011671         0.3176 
 143   0.0000       0.028632         0.7791 
 144   0.0000       0.051296         1.3958 
 145   0.0000       0.059733         1.6254 
 146   0.0000       0.063993         1.7413 
 147   0.0000       0.068183         1.8553 
 148   0.0000       0.071865         1.9555 
 149   0.0000       0.075835         2.0636 
 150   0.0000       0.079820         2.1720 
*Only the first 10 virtual orbitals were printed.

                    ********************************
                    * MULLIKEN POPULATION ANALYSIS *
                    ********************************

-----------------------
MULLIKEN ATOMIC CHARGES
-----------------------
   0 C :   -0.120190
   1 C :   -0.027733
   2 C :   -0.631568
   3 C :   -0.152396
   4 C :   -0.048750
   5 C :   -0.620588
   6 C :   -0.026864
   7 C :   -0.471420
   8 C :    0.070218
   9 C :    1.121718
  10 C :   -0.182737
  11 C :   -0.597909
  12 C :   -0.322029
  13 C :   -0.098443
  14 C :   -0.444889
  15 C :    0.096573
  16 C :    1.083263
  17 C :   -0.012573
  18 C :   -0.613791
  19 C :   -0.249755
  20 C :    0.402301
  21 N :   -0.048387
  22 C :    0.364584
  23 C :    0.501091
  24 N :   -0.054180
  25 C :    0.414172
  26 O :   -0.545527
  27 O :   -0.525151
  28 O :   -0.544921
  29 O :   -0.525898
  30 C :    0.086199
  31 C :    0.102278
  32 C :   -0.190307
  33 C :   -0.193568
  34 C :   -0.518706
  35 C :   -0.517378
  36 C :   -0.185856
  37 C :   -0.190727
  38 C :   -0.517555
  39 C :   -0.519962
  40 H :    0.204990
  41 H :    0.220075
  42 H :    0.220199
  43 H :    0.205091
  44 H :    0.204900
  45 H :    0.220120
  46 H :    0.220184
  47 H :    0.205197
  48 H :    0.188219
  49 H :    0.188768
  50 H :    0.170356
  51 H :    0.173182
  52 H :    0.173302
  53 H :    0.170685
  54 H :    0.167328
  55 H :    0.168498
  56 H :    0.165539
  57 H :    0.165032
  58 H :    0.168512
  59 H :    0.167424
  60 H :    0.170350
  61 H :    0.173607
  62 H :    0.172912
  63 H :    0.170642
  64 H :    0.165332
  65 H :    0.168286
  66 H :    0.167166
  67 H :    0.167672
  68 H :    0.168501
  69 H :    0.165294
Sum of atomic charges:    0.0000000

--------------------------------
MULLIKEN REDUCED ORBITAL CHARGES
--------------------------------
  0 C s       :     2.933944  s :     2.933944
      pz      :     0.978810  p :     3.144480
      px      :     1.163160
      py      :     1.002510
      dz2     :     0.003088  d :     0.041767
      dxz     :     0.006024
      dyz     :     0.006635
      dx2y2   :     0.013515
      dxy     :     0.012505

  1 C s       :     2.894779  s :     2.894779
      pz      :     0.979574  p :     3.091230
      px      :     1.095782
      py      :     1.015873
      dz2     :     0.003088  d :     0.041724
      dxz     :     0.005982
      dyz     :     0.006640
      dx2y2   :     0.013477
      dxy     :     0.012537

  2 C s       :     3.235913  s :     3.235913
      pz      :     0.947797  p :     3.355565
      px      :     1.015389
      py      :     1.392379
      dz2     :     0.003176  d :     0.040090
      dxz     :     0.005377
      dyz     :     0.006071
      dx2y2   :     0.012971
      dxy     :     0.012495

  3 C s       :     2.986611  s :     2.986611
      pz      :     0.979570  p :     3.124020
      px      :     1.106116
      py      :     1.038334
      dz2     :     0.003086  d :     0.041764
      dxz     :     0.006021
      dyz     :     0.006635
      dx2y2   :     0.013517
      dxy     :     0.012505

  4 C s       :     2.939967  s :     2.939967
      pz      :     0.980469  p :     3.067061
      px      :     1.039391
      py      :     1.047201
      dz2     :     0.003086  d :     0.041722
      dxz     :     0.005981
      dyz     :     0.006640
      dx2y2   :     0.013478
      dxy     :     0.012536

  5 C s       :     3.237408  s :     3.237408
      pz      :     0.947766  p :     3.343090
      px      :     1.009683
      py      :     1.385642
      dz2     :     0.003177  d :     0.040090
      dxz     :     0.005377
      dyz     :     0.006071
      dx2y2   :     0.012970
      dxy     :     0.012495

  6 C s       :     2.959602  s :     2.959602
      pz      :     0.960114  p :     3.032885
      px      :     1.049654
      py      :     1.023117
      dz2     :     0.002837  d :     0.034376
      dxz     :     0.005056
      dyz     :     0.003231
      dx2y2   :     0.010893
      dxy     :     0.012359

  7 C s       :     3.420688  s :     3.420688
      pz      :     0.895337  p :     3.014636
      px      :     0.992166
      py      :     1.127133
      dz2     :     0.002824  d :     0.036096
      dxz     :     0.006045
      dyz     :     0.003908
      dx2y2   :     0.010457
      dxy     :     0.012861

  8 C s       :     2.674891  s :     2.674891
      pz      :     1.039741  p :     3.216098
      px      :     0.555208
      py      :     1.621149
      dz2     :     0.003200  d :     0.038793
      dxz     :     0.003501
      dyz     :     0.006710
      dx2y2   :     0.014476
      dxy     :     0.010906

  9 C s       :     1.795607  s :     1.795607
      pz      :     1.012881  p :     3.040085
      px      :     0.501346
      py      :     1.525859
      dz2     :     0.003210  d :     0.042590
      dxz     :     0.006381
      dyz     :     0.007345
      dx2y2   :     0.012571
      dxy     :     0.013083

 10 C s       :     2.897236  s :     2.897236
      pz      :     1.030186  p :     3.246719
      px      :     0.466839
      py      :     1.749693
      dz2     :     0.003200  d :     0.038782
      dxz     :     0.003438
      dyz     :     0.006717
      dx2y2   :     0.014462
      dxy     :     0.010966

 11 C s       :     3.400400  s :     3.400400
      pz      :     0.895096  p :     3.161394
      px      :     1.046861
      py      :     1.219437
      dz2     :     0.002828  d :     0.036115
      dxz     :     0.006029
      dyz     :     0.003950
      dx2y2   :     0.010438
      dxy     :     0.012870

 12 C s       :     3.129232  s :     3.129232
      pz      :     0.960119  p :     3.158450
      px      :     1.199506
      py      :     0.998825
      dz2     :     0.002837  d :     0.034346
      dxz     :     0.005060
      dyz     :     0.003199
      dx2y2   :     0.010939
      dxy     :     0.012311

 13 C s       :     3.010803  s :     3.010803
      pz      :     0.958276  p :     3.053263
      px      :     1.052219
      py      :     1.042768
      dz2     :     0.002837  d :     0.034376
      dxz     :     0.005057
      dyz     :     0.003231
      dx2y2   :     0.010894
      dxy     :     0.012357

 14 C s       :     3.407462  s :     3.407462
      pz      :     0.896188  p :     3.001332
      px      :     0.989248
      py      :     1.115896
      dz2     :     0.002825  d :     0.036096
      dxz     :     0.006045
      dyz     :     0.003908
      dx2y2   :     0.010456
      dxy     :     0.012861

 15 C s       :     2.683182  s :     2.683182
      pz      :     1.039885  p :     3.181452
      px      :     0.530227
      py      :     1.611340
      dz2     :     0.003200  d :     0.038793
      dxz     :     0.003501
      dyz     :     0.006710
      dx2y2   :     0.014475
      dxy     :     0.010906

 16 C s       :     1.797453  s :     1.797453
      pz      :     1.012779  p :     3.076695
      px      :     0.547544
      py      :     1.516372
      dz2     :     0.003211  d :     0.042590
      dxz     :     0.006381
      dyz     :     0.007344
      dx2y2   :     0.012571
      dxy     :     0.013082

 17 C s       :     2.838208  s :     2.838208
      pz      :     1.029264  p :     3.135582
      px      :     0.366109
      py      :     1.740210
      dz2     :     0.003201  d :     0.038783
      dxz     :     0.003439
      dyz     :     0.006716
      dx2y2   :     0.014461
      dxy     :     0.010965

 18 C s       :     3.428093  s :     3.428093
      pz      :     0.894189  p :     3.149582
      px      :     1.023896
      py      :     1.231497
      dz2     :     0.002829  d :     0.036115
      dxz     :     0.006031
      dyz     :     0.003951
      dx2y2   :     0.010437
      dxy     :     0.012868

 19 C s       :     3.084651  s :     3.084651
      pz      :     0.961645  p :     3.130758
      px      :     1.190146
      py      :     0.978967
      dz2     :     0.002837  d :     0.034347
      dxz     :     0.005061
      dyz     :     0.003200
      dx2y2   :     0.010937
      dxy     :     0.012312

 20 C s       :     3.104598  s :     3.104598
      pz      :     0.761455  p :     2.380237
      px      :     0.973714
      py      :     0.645068
      dz2     :     0.005769  d :     0.112864
      dxz     :     0.009990
      dyz     :     0.023755
      dx2y2   :     0.041477
      dxy     :     0.031872

 21 N s       :     3.209018  s :     3.209018
      pz      :     1.595156  p :     3.804741
      px      :     0.977148
      py      :     1.232438
      dz2     :     0.003445  d :     0.034628
      dxz     :     0.005275
      dyz     :     0.003933
      dx2y2   :     0.009066
      dxy     :     0.012910

 22 C s       :     3.065393  s :     3.065393
      pz      :     0.777038  p :     2.457946
      px      :     0.995274
      py      :     0.685635
      dz2     :     0.005755  d :     0.112076
      dxz     :     0.010132
      dyz     :     0.023642
      dx2y2   :     0.041262
      dxy     :     0.031285

 23 C s       :     2.980869  s :     2.980869
      pz      :     0.761059  p :     2.405177
      px      :     1.007707
      py      :     0.636411
      dz2     :     0.005768  d :     0.112863
      dxz     :     0.009989
      dyz     :     0.023755
      dx2y2   :     0.041473
      dxy     :     0.031878

 24 N s       :     3.209652  s :     3.209652
      pz      :     1.595198  p :     3.809900
      px      :     0.978701
      py      :     1.236001
      dz2     :     0.003445  d :     0.034628
      dxz     :     0.005274
      dyz     :     0.003933
      dx2y2   :     0.009067
      dxy     :     0.012910

 25 C s       :     2.942532  s :     2.942532
      pz      :     0.777352  p :     2.531221
      px      :     1.072471
      py      :     0.681399
      dz2     :     0.005748  d :     0.112075
      dxz     :     0.010129
      dyz     :     0.023645
      dx2y2   :     0.041269
      dxy     :     0.031284

 26 O s       :     3.919244  s :     3.919244
      pz      :     1.478811  p :     4.600793
      px      :     1.686306
      py      :     1.435677
      dz2     :     0.002128  d :     0.025490
      dxz     :     0.002744
      dyz     :     0.007418
      dx2y2   :     0.006486
      dxy     :     0.006714

[...]
  0-1A  -> 16-1A    5.683692   45842.1   218.1   0.023878999   0.00748   0.00349   0.08642   0.00023
  0-1A  -> 17-1A    5.756357   46428.2   215.4   0.002730724   0.00087   0.02936   0.00214   0.00033
  0-1A  -> 18-1A    5.888773   47496.2   210.5   0.098295546   0.03191   0.17862   0.00171  -0.00027
  0-1A  -> 19-1A    5.956562   48042.9   208.1   0.017684582   0.00581  -0.00961   0.07559   0.00036
  0-1A  -> 20-1A    6.002661   48414.7   206.5   0.000000095   0.00000  -0.00005   0.00012  -0.00012
  0-1A  -> 21-1A    6.019321   48549.1   206.0   0.000029153   0.00001   0.00311   0.00003   0.00000
  0-1A  -> 22-1A    6.060571   48881.8   204.6   0.008607779   0.00288   0.01931   0.05003   0.00007
  0-1A  -> 23-1A    6.240588   50333.7   198.7   0.009607839   0.00331  -0.01020   0.05657   0.00082
  0-1A  -> 24-1A    6.258610   50479.1   198.1   0.029387571   0.01014   0.02709  -0.09698  -0.00023
  0-1A  -> 25-1A    6.286427   50703.5   197.2   0.536141812   0.18579   0.43062   0.01839  -0.00428
  0-1A  -> 26-1A    6.292299   50750.8   197.0   0.000002571   0.00000   0.00051   0.00005  -0.00079
  0-1A  -> 27-1A    6.326982   51030.6   196.0   0.000250252   0.00009   0.00413   0.00015  -0.00838
  0-1A  -> 28-1A    6.478461   52252.3   191.4   0.899000778   0.32105  -0.56653  -0.00973   0.00179
  0-1A  -> 29-1A    6.543361   52775.8   189.5   0.000062231   0.00002  -0.00341   0.00322  -0.00069
  0-1A  -> 30-1A    6.567085   52967.1   188.8   0.001166866   0.00042  -0.00312   0.02031   0.00037

------------------------------------------------------------------------------------------
                     CD SPECTRUM VIA TRANSITION ELECTRIC DIPOLE MOMENTS    
------------------------------------------------------------------------------------------
     Transition      Energy     Energy  Wavelength    R        MX        MY        MZ   
                      (eV)      (cm-1)    (nm)   (1e40*cgs)   (au)      (au)      (au)  
------------------------------------------------------------------------------------------
  0-1A  ->  1-1A    2.748080   22164.8   451.2   -0.60842  -0.00029   0.00099   0.00012
  0-1A  ->  2-1A    3.864748   31171.3   320.8   -1.10479  -0.00192   0.00140  -0.37962
  0-1A  ->  3-1A    4.045690   32630.7   306.5   -1.70044  -0.00009  -0.00275  -0.00103
  0-1A  ->  4-1A    4.063128   32771.3   305.1    4.03659  -0.00989   0.00586  -1.69323
  0-1A  ->  5-1A    4.370478   35250.3   283.7   -0.00005   0.00014   0.00070  -0.01964
  0-1A  ->  6-1A    4.550559   36702.7   272.5   -0.11034  -0.07000  -0.51966   0.03143
  0-1A  ->  7-1A    4.552382   36717.4   272.4   -1.72417  -0.00135  -0.00788  -0.05998
  0-1A  ->  8-1A    4.557770   36760.9   272.0    1.94300  -0.00517  -0.02221  -0.64896
  0-1A  ->  9-1A    4.684374   37782.0   264.7    0.19524   0.15904  -0.24321  -0.00201
  0-1A  -> 10-1A    4.703411   37935.6   263.6   -0.04989   0.00001   0.00007   0.00329
  0-1A  -> 11-1A    4.791181   38643.5   258.8   -0.00100  -0.00035   0.00002  -0.01312
  0-1A  -> 12-1A    4.877755   39341.8   254.2   -1.59766  -0.00321   0.00196  -0.36302
  0-1A  -> 13-1A    4.983554   40195.1   248.8    1.14827   0.00089   0.00369   0.00009
  0-1A  -> 14-1A    5.369758   43310.0   230.9   -3.46747  -0.00243   0.00143  -0.40367
  0-1A  -> 15-1A    5.603443   45194.8   221.3   -0.59599  -0.00626  -0.01967  -0.00055
  0-1A  -> 16-1A    5.683692   45842.1   218.1   -3.88043  -0.00023  -0.00308  -0.00007
  0-1A  -> 17-1A    5.756357   46428.2   215.4   -0.10262  -0.00156   0.00008  -0.00011
  0-1A  -> 18-1A    5.888773   47496.2   210.5    0.15166   0.00025   0.00032   0.00000
  0-1A  -> 19-1A    5.956562   48042.9   208.1    3.82683  -0.00022   0.00504   0.00001
  0-1A  -> 20-1A    6.002661   48414.7   206.5    0.00392  -0.00037   0.00132  -0.02799
  0-1A  -> 21-1A    6.019321   48549.1   206.0   -0.75243  -0.07523   0.00666   0.00461
  0-1A  -> 22-1A    6.060571   48881.8   204.6    0.90479   0.00044   0.00332   0.00001
  0-1A  -> 23-1A    6.240588   50333.7   198.7   -0.19457  -0.00014  -0.00047  -0.00097
  0-1A  -> 24-1A    6.258610   50479.1   198.1   -0.12742   0.00029   0.00020  -0.00071
  0-1A  -> 25-1A    6.286427   50703.5   197.2    1.24517   0.00114   0.00089   0.00023
  0-1A  -> 26-1A    6.292299   50750.8   197.0    1.60186  -0.00026   0.00175  -0.54075
  0-1A  -> 27-1A    6.326982   51030.6   196.0   -0.13092   0.00000  -0.00056   0.02264
  0-1A  -> 28-1A    6.478461   52252.3   191.4   -2.14246   0.00139  -0.00144  -0.00013
  0-1A  -> 29-1A    6.543361   52775.8   189.5   -0.00344  -0.00022  -0.00013  -0.00005
  0-1A  -> 30-1A    6.567085   52967.1   188.8   -0.88467  -0.00213  -0.00373  -0.00002

------------------------------------------------------------------------------------------
                     CD SPECTRUM VIA TRANSITION VELOCITY DIPOLE MOMENTS    
------------------------------------------------------------------------------------------
     Transition      Energy     Energy  Wavelength    R        MX        MY        MZ   
                      (eV)      (cm-1)    (nm)   (1e40*cgs)   (au)      (au)      (au)  
------------------------------------------------------------------------------------------
  0-1A  ->  1-1A    2.748080   22164.8   451.2   -0.33988  -0.00029   0.00099   0.00012
  0-1A  ->  2-1A    3.864748   31171.3   320.8    0.27690  -0.00192   0.00140  -0.37962
  0-1A  ->  3-1A    4.045690   32630.7   306.5    0.03191  -0.00009  -0.00275  -0.00103
  0-1A  ->  4-1A    4.063128   32771.3   305.1    0.42726  -0.00989   0.00586  -1.69323
  0-1A  ->  5-1A    4.370478   35250.3   283.7   -0.00988   0.00014   0.00070  -0.01964
  0-1A  ->  6-1A    4.550559   36702.7   272.5   -0.25666  -0.07000  -0.51966   0.03143
  0-1A  ->  7-1A    4.552382   36717.4   272.4    3.93990  -0.00135  -0.00788  -0.05998
  0-1A  ->  8-1A    4.557770   36760.9   272.0   -3.44787  -0.00517  -0.02221  -0.64896
  0-1A  ->  9-1A    4.684374   37782.0   264.7   -0.30439   0.15904  -0.24321  -0.00201
  0-1A  -> 10-1A    4.703411   37935.6   263.6    0.08772   0.00001   0.00007   0.00329
  0-1A  -> 11-1A    4.791181   38643.5   258.8    0.00091  -0.00035   0.00002  -0.01312
  0-1A  -> 12-1A    4.877755   39341.8   254.2    0.00050  -0.00321   0.00196  -0.36302
  0-1A  -> 13-1A    4.983554   40195.1   248.8   -0.00112   0.00089   0.00369   0.00009
  0-1A  -> 14-1A    5.369758   43310.0   230.9   -0.42425  -0.00243   0.00143  -0.40367
  0-1A  -> 15-1A    5.603443   45194.8   221.3   -0.07913  -0.00626  -0.01967  -0.00055
  0-1A  -> 16-1A    5.683692   45842.1   218.1   -0.60350  -0.00023  -0.00308  -0.00007
  0-1A  -> 17-1A    5.756357   46428.2   215.4   -0.10147  -0.00156   0.00008  -0.00011
  0-1A  -> 18-1A    5.888773   47496.2   210.5    0.09710   0.00025   0.00032   0.00000
  0-1A  -> 19-1A    5.956562   48042.9   208.1    0.82507  -0.00022   0.00504   0.00001
  0-1A  -> 20-1A    6.002661   48414.7   206.5    0.00775  -0.00037   0.00132  -0.02799
  0-1A  -> 21-1A    6.019321   48549.1   206.0   -0.49816  -0.07523   0.00666   0.00461
  0-1A  -> 22-1A    6.060571   48881.8   204.6    0.36987   0.00044   0.00332   0.00001
  0-1A  -> 23-1A    6.240588   50333.7   198.7   -0.05323  -0.00014  -0.00047  -0.00097
  0-1A  -> 24-1A    6.258610   50479.1   198.1   -0.02315   0.00029   0.00020  -0.00071
  0-1A  -> 25-1A    6.286427   50703.5   197.2    1.03580   0.00114   0.00089   0.00023
  0-1A  -> 26-1A    6.292299   50750.8   197.0    0.87637  -0.00026   0.00175  -0.54075
  0-1A  -> 27-1A    6.326982   51030.6   196.0   -0.38494   0.00000  -0.00056   0.02264
  0-1A  -> 28-1A    6.478461   52252.3   191.4   -1.52857   0.00139  -0.00144  -0.00013
  0-1A  -> 29-1A    6.543361   52775.8   189.5    0.00065  -0.00022  -0.00013  -0.00005
  0-1A  -> 30-1A    6.567085   52967.1   188.8   -0.13511  -0.00213  -0.00373  -0.00002

Total run time:      959.540 sec

           *** ORCA-CIS/TD-DFT FINISHED WITHOUT ERROR ***
-----------------------
CIS/TD-DFT TOTAL ENERGY
-----------------------

    E(SCF)  =  -1723.853881041 Eh
    DE(CIS) =      0.100990093 Eh (Root  1)
    ----------------------------- ---------
    E(tot)  =  -1723.752890947 Eh


Maximum memory used throughout the entire CIS-calculation: 1045.1 MB
=> NOW LEAVING ORCA_CIS


-------------------------------------------------------------------------------
                          DFT DISPERSION CORRECTION                            
                                                                               
                              DFTD3 V3.1  Rev 1                                
                              USING zero damping                               
-------------------------------------------------------------------------------
The omegaB97X-D3 functional is recognized. Fit by Chai et al.
Active option DFTDOPT                   ...         3   

molecular C6(AA) [au] = 56044.698043 


            DFT-D V3
 parameters
 s6 scaling factor         :     1.0000 
 rs6 scaling factor        :     1.2810 
 s8 scaling factor         :     1.0000 
 rs8 scaling factor        :     1.0940 
 Damping factor alpha6     :    14.0000 
 Damping factor alpha8     :    16.0000 
 ad hoc parameters k1-k3   :    16.0000     1.3333    -4.0000 

 Edisp/kcal,au: -25.393205373348  -0.040466644273 
 E6   /kcal   : -12.146775651 
 E8   /kcal   : -13.246429722 
 % E8         :  52.165252584 

-------------------------   ----------------
Dispersion correction           -0.040466644
-------------------------   ----------------


-------------------------   --------------------
FINAL SINGLE POINT ENERGY     -1723.793357591429
-------------------------   --------------------



           ************************************************************
           *        Program running with 8 parallel MPI-processes     *
           *              working on a common directory               *
           ************************************************************

------------------------------------------------------------------------------
                              ORCA PROPERTY CALCULATIONS
------------------------------------------------------------------------------

GBWName                                 ... pdi_terminal_functionalized_tda_singlets.gbw
Number of atoms                         ...     70
Number of basis functions               ...    870
Max core memory                         ...   1200 MB

Electric properties:
Dipole moment                           ... YES
Quadrupole moment                       ...  NO
Static polarizability (Dipole/Dipole)   ...  NO
Static polarizability (Dipole/Quad.)    ...  NO
Static polarizability (Quad./Quad.)     ...  NO
Static polarizability (Velocity)        ...  NO
Static hyperpolarizability              ...  NO

Atomic electric properties:
Dipole moment                           ...  NO
Quadrupole moment                       ...  NO
Static polarizability                   ...  NO

Choice of electric origin               ... Center of mass
Position of electric origin             ...    -0.008301    -0.023496    -0.361980

General magnetic properties:
Magnetizability                         ...  NO

EPR properties:
g-Tensor (aka g-matrix)                 ...  NO
Zero-Field splitting spin-orbit         ...  NO
Zero-field splitting spin-spin          ...  NO
Hyperfine couplings                     ...  NO (   0 nuclei)
Quadrupole couplings                    ...  NO (   0 nuclei)
Contact density                         ...  NO (   0 nuclei)

NMR properties:
Chemical shifts                         ...  NO (   0 nuclei)
Spin-rotation constants                 ...  NO (   0 nuclei)
Spin-spin couplings                     ...  NO (   0 nuclei,    0 pairs)

Choice of magnetic origin               ... GIAO
Position of magnetic origin             ...     0.000000     0.000000     0.000000

Properties with geometric perturbations:
SCF Hessian                             ...  NO
IR spectrum                             ...  NO
VCD spectrum                            ...  NO
X-ray spectroscopy properties:
SCF XES/XAS/RIXS spectra                ...  NO

SCF SOC stabilization energy            ...  NO
Diagonal Born-Oppenheimer correction    ...  NO

-------------
DIPOLE MOMENT
-------------

Method             : SCF
Type of density    : Electron Density
Multiplicity       :   1
Irrep              :   0
Energy             : -1723.8538810406007542 Eh
Basis              : AO
                                X                 Y                 Z
Electronic contribution:      0.000150130      -0.001280311       0.049700246
Nuclear contribution   :     -0.000128566       0.001621387      -0.054362905
                        -----------------------------------------
Total Dipole Moment    :      0.000021565       0.000341075      -0.004662659
                        -----------------------------------------
Magnitude (a.u.)       :      0.004675167
Magnitude (Debye)      :      0.011883330



--------------------
Rotational spectrum 
--------------------
 
Rotational constants in cm-1:             0.009650             0.001204             0.001144 
Rotational constants in MHz :           289.304779            36.087406            34.296633 

Dipole components along the rotational axes: 
x,y,z [a.u.] :     0.000054     0.000326     0.004663 
x,y,z [Debye]:     0.000137     0.000830     0.011854 

 

Dipole moment calculation done in   0.0 sec 

Maximum memory used throughout the entire PROP-calculation: 81.9 MB

--------------------------------
SUGGESTED CITATIONS FOR THIS RUN
--------------------------------

Below you find a list of papers that are relevant to this ORCA run
We neither can nor want to force you to cite these papers, but we appreciate if you do
You receive ORCA, which is the product of decades of hard work by many enthusiastic individuals, for free
The only thing we kindly ask in return is that you cite our papers,
We deeply appreciate it, if you show your appreciation for ORCA by not just citing the generic ORCA reference.

Please note that relegating all ORCA citations to the supporting information does *not* help us.
SI sections are not indexed - citations you put there will not count into any citation statistics
But we need these citations in order to attract the funding resources that allow us to do what we are doing

Therefore, if you are a happy ORCA user, please consider citing a few of the papers listed below in the main body of your paper

In addition to the list printed below, the program has created the file pdi_terminal_functionalized_tda_singlets.bibtex that contains the list in bibtex format
You can import this file easily into all common literature databanks and citation aid programs

It goes without saying that in many instances, there are alternative algorithms to achieve similar
results as the ones you have gotten from ORCA. It is, of course, also the case that in some instances
ORCA just re-implements algorithms worked out by others. We are fully aware of that and we are also
fully appreciative of our colleagues work. Hence this citation list should not be read as indicating
that the listed papers, which are focused on our own work, are the only ones worth citing. It simply
meant to make it easier for users to cite ORCA specific papers. It is not a substitute for doing your
own literature research and citing the relevant literature in a scientifically appropriate manner.

List of essential papers. We consider these as the minimum necessary citations

  1. Neese, F.
     Software update: the ORCA program system, version 6.0
     WIRES Comput. Molec. Sci. 2025 15(1), e70019
     doi.org/10.1002/wcms.70019

List of papers to cite with high priority. The work reported in these papers was absolutely
necessary for this run to complete.
Our perspective: the developers of density functionals and basis sets usually get cited in chemistry papers
Good! But without the algorithms to do something with them, the functionals or basis sets would not do anything.
Hence, in our opinion, the algorithm design and method developments papers are equally worthy of getting cited

  1. Neese, F.; Olbrich, G.
     Efficient use of the resolution of the identity approximation in time-dependent density functional calculations with hybrid density functionals
     Chem. Phys. Lett. 2002 362 , 170-178
     doi.org/10.1016/s0009-2614(02)01053-9
  2. Neese, F.
     An improvement of the resolution of the identity approximation for the formation of the Coulomb matrix
     J. Comp. Chem. 2003 24(14), 1740-1747
     doi.org/10.1002/jcc.10318
  3. Neese, F.; Wennmohs, F.; Hansen, A.; Becker, U.
     Efficient, approximate and parallel Hartree-Fock and hybrid DFT calculations. A 'chain-of-spheres' algorithm for the Hartree-Fock exchange
     Chem. Phys. 2009 356(1-3), 98-109
     doi.org/10.1016/j.chemphys.2008.10.036
  4. Grimme, S.; Antony, J.; Ehrlich, S.; Krieg, H.
     A consistent and accurate ab initio parametrization of density functional dispersion correction (DFT-D) for the 94 elements H-Pu
     J. Chem. Phys. 2010 132 , 154104
     doi.org/10.1063/1.3382344
  5. Garcia-Rates, M.; Neese, F.
     Effect of the Solute Cavity on the Solvation Energy and its Derivatives within the Framework of the Gaussian Charge Scheme
     J. Comput. Chem. 2020 41 , 922-939
     doi.org/10.1002/jcc.26139
  6. Helmich-Paris, B.; de Souza, B.; Neese, F.; Izsák, R.
     An improved chain of spheres for exchange algorithm
     J. Chem. Phys. 2021 155(10), 104109
     doi.org/10.1063/5.0058766
  7. Neese, F.
     The SHARK Integral Generation and Digestion System
     J. Comp. Chem. 2022 44(3), 381
     doi.org/10.1002/jcc.26942

List of suggested additional citations. These are papers that are important in the 'surrounding' of 
of this run, or papers that preceded the highly important papers. If you like your results we are grateful for a citation.

  1. Izsak, R.; Neese, F.
     An overlap fitted chain of spheres exchange method
     J. Chem. Phys. 2011 135 , 144105
     doi.org/10.1063/1.3646921
  2. Izsak, R.; Hansen, A.; Neese, F.
     The resolution of identity and chain of spheres approximations for the LPNO-CCSD singles Fock term
     Molec. Phys. 2012 110 , 2413-2417
     doi.org/10.1080/00268976.2012.687466
  3. Neese, F.
     The ORCA program system
     WIRES Comput. Molec. Sci. 2012 2(1), 73-78
     doi.org/10.1002/wcms.81
  4. Izsak, R.; Neese, F.; Klopper, W.
     Robust fitting techniques in the chain of spheres approximation to the Fock exchange: The role of the complementary space
     J. Chem. Phys. 2013 139 , 
     doi.org/10.1063/1.4819264
  5. Neese, F.
     Software update: the ORCA program system, version 4.0
     WIRES Comput. Molec. Sci. 2018 8(1), 1-6
     doi.org/10.1002/wcms.1327
  6. Neese, F.; Wennmohs, F.; Becker, U.; Riplinger, C.
     The ORCA quantum chemistry program package
     J. Chem. Phys. 2020 152(22), 224108
     doi.org/10.1063/5.0004608
  7. Neese, F.
     Software update: The ORCA program system—Version 5.0
     WIRES Comput. Molec. Sci. 2022 12(1), e1606
     doi.org/10.1002/wcms.1606

List of optional additional citations

  1. Neese, F.
     Approximate second-order SCF convergence for spin unrestricted wavefunctions
     Chem. Phys. Lett. 2000 325(1-3), 93-98
     doi.org/10.1016/s0009-2614(00)00662-x

Timings for individual modules:

Sum of individual times          ...     1271.002 sec (=  21.183 min)
Startup calculation              ...       10.135 sec (=   0.169 min)   0.8 %
SCF iterations                   ...      299.075 sec (=   4.985 min)  23.5 %
Property integrals               ...        1.086 sec (=   0.018 min)   0.1 %
Property calculations            ...        0.579 sec (=   0.010 min)   0.0 %
CIS module                       ...      960.127 sec (=  16.002 min)  75.5 %
                             ****ORCA TERMINATED NORMALLY****
TOTAL RUN TIME: 0 days 0 hours 21 minutes 11 seconds 474 msec
