
                                 *****************
                                 * O   R   C   A *
                                 *****************

                                            #,                                       
                                            ###                                      
                                            ####                                     
                                            #####                                    
                                            ######                                   
                                           ########,                                 
                                     ,,################,,,,,                         
                               ,,#################################,,                 
                          ,,##########################################,,             
                       ,#########################################, ''#####,          
                    ,#############################################,,   '####,        
                  ,##################################################,,,,####,       
                ,###########''''           ''''###############################       
              ,#####''   ,,,,##########,,,,          '''####'''          '####       
            ,##' ,,,,###########################,,,                        '##       
           ' ,,###''''                  '''############,,,                           
         ,,##''                                '''############,,,,        ,,,,,,###''
      ,#''                                            '''#######################'''  
     '                                                          ''''####''''         
             ,#######,   #######,   ,#######,      ##                                
            ,#'     '#,  ##    ##  ,#'     '#,    #''#        ,####,    ,#,          
            ##       ##  ##   ,#'  ##            #'  '#       #'       ,# #          
            ##       ##  #######   ##           ,######,      #####,      #          
            '#,     ,#'  ##    ##  '#,     ,#' ,#      #,     #,   #      #          
             '#######'   ##     ##  '#######'  #'      '#     '####' #    #          



                #########################################################
                #                        -***-                          #
                #          Department of theory and spectroscopy        #
                #                                                       #
                #                      Frank Neese                      #
                #                                                       #
                #     Directorship, Architecture, Infrastructure        #
                #                    SHARK, DRIVERS                     #
                #        Core code/Algorithms in most modules           #
                #                                                       #
                #        Max Planck Institute fuer Kohlenforschung      #
                #                Kaiser Wilhelm Platz 1                 #
                #                 D-45470 Muelheim/Ruhr                 #
                #                      Germany                          #
                #                                                       #
                #                  All rights reserved                  #
                #                        -***-                          #
                #########################################################


                         Program Version 6.1.1  -  RELEASE   -
                                (GIT: $487d211cc3$)
                          ($2025-11-21 10:33:24 +0100$)


 With contributions from (in alphabetic order):
[Max-Planck-Institut fuer Kohlenforschung]                               
  Daniel Aravena         : Magnetic Suceptibility                        
  Michael Atanasov       : Ab Initio Ligand Field Theory (pilot matlab implementation)
  Alexander A. Auer      : GIAO ZORA, VPT2 properties, NMR spectrum      
  Ute Becker             : All parallelization in ORCA, NUMFREQ, NUMCALC 
  Giovanni Bistoni       : ED, misc. LED, open-shell LED, HFLD           
  Dmytro Bykov           : pre 5.0 version of the SCF Hessian            
  Marcos Casanova-Páez   : Triplet and SCS-CIS(D). UHF-(DLPNO)-IP/EA/STEOM-CCSD. UHF-CVS-IP/STEOM-CCSD   
  Vijay G. Chilkuri      : MRCI spin determinant printing, contributions to CSF-ICE 
  Pauline Colinet        : FMM embedding                                 
  Dipayan Datta          : RHF DLPNO-CCSD density                        
  Achintya Kumar Dutta   : EOM-CC, STEOM-CC                              
  Nicolas Foglia         : Exact transition moments, OPA infrastructure, MCD improvements    
  Dmitry Ganyushin       : Spin-Orbit,Spin-Spin,Magnetic field MRCI      
  Miquel Garcia-Rates    : C-PCM and meta-GGA Hessian, CCSD/C-PCM, Gaussian charge scheme 
  Tiago L. C. Gouveia    : GS-ROHF, GS-ROCIS                             
  Yang Guo               : DLPNO-NEVPT2, F12-NEVPT2, CIM, IAO-localization        
  Andreas Hansen         : Spin unrestricted coupled pair/coupled cluster methods 
  Ingolf Harden          : AUTO-CI MPn and infrastructure                
  Benjamin Helmich-Paris : MC-RPA, TRAH-(SCF,CASSCF), AVAS, COSX integrals, SCF dyn. polar., MC-PDFT, srDFT 
  Lee Huntington         : MR-EOM, pCC                                   
  Robert Izsak           : Overlap fitted RIJCOSX, COSX-SCS-MP3, EOM     
  Riya Kayal             : Wick's Theorem for AUTO-CI, AUTO-CI UHF-CCSDT 
  Emily Kempfer          : AUTO-CI RHF CISDT and CCSDT, approximate NEVPT4
  Christian Kollmar      : KDIIS, OOCD, Brueckner-CCSD(T), CCSD density, CASPT2, CASPT2-K, improved NEVPT2 
  Axel Koslowski         : Symmetry handling                             
  Simone Kossmann        : meta-GGA functionals, TD-DFT gradient, OOMP2, (MP2 Hessian; deprecated post 5.0) 
  Lucas Lang             : DCDCAS, Hyperfine gauge corrections, ICE-SOC+SSC
  Marvin Lechner         : AUTO-CI (C++ implementation), FIC-MRCC        
  Spencer Leger          : CASSCF response                               
  Dagmar Lenk            : GEPOL surface, SMD, ORCA-2-JSON               
  Dimitrios Liakos       : Extrapolation schemes; Compound Job, Property file
  Dimitrios Manganas     : Further ROCIS development; embedding schemes. LFT, Crystal Embedding 
  Dimitrios Pantazis     : SARC Basis sets                               
  Anastasios Papadopoulos: AUTO-CI, single reference methods and gradients 
  Taras Petrenko         : pre 6.0 DFT Hessian and TD-DFT gradient,  ECA, NRVS 
  Petra Pikulova         : Analytic Raman intensities                    
  Peter Pinski           : DLPNO-MP2, DLPNO-MP2 Gradient                 
  Shashank Vittal Rao    : ES-AILFT, MagRelax                            
  Christoph Reimann      : Effective Core Potentials                     
  Marius Retegan         : Local ZFS, SOC                                
  Christoph Riplinger    : Optimizer, TS searches, QM/MM, DLPNO-CCSD(T), (RO)-DLPNO pert. Triples 
  Michael Roemelt        : Original ROCIS implementation, recursive CI coupling coefficients
  Masaaki Saitow         : Open-shell DLPNO-CCSD energy and density      
  Barbara Sandhoefer     : DKH picture change effects                    
  Yorick L. A. Schmerwitz: GMF and freeze-and-release deltaSCF, NEB S-IDPP initial path                    
  Kantharuban Sivalingam : CASSCF convergence/infrastructure, NEVPT2, NEVPT3, NEVPT4(SD), FIC-MRCI and CEPA variants
  Bernardo de Souza      : ESD, SOC TD-DFT                               
  Georgi L. Stoychev     : AutoAux, RI-MP2 NMR, DLPNO-MP2 response, X2C  
  Van Anh Tran           : RI-MP2 g-tensors                              
  Willem Van den Heuvel  : Paramagnetic NMR                              
  Zikuan Wang            : NOTCH, Electric field optimization            
  Frank Wennmohs         : Technical directorship and infrastructure     
  Hang Xu                : AUTO-CI-Response properties                   
                                                                         
[FACCTs GmbH]                                                            
  Markus Bursch, Nicolas Foglia, Miquel Garcia-Rates, Ingolf Harden, Hagen Neugebauer, Anastasios Papadopoulos, 
  Christoph Riplinger, Bernardo de Souza, Georgi L. Stoychev                                                    
                                                                 
  APM, various basis sets, CI-OPT, improved COSX, DLPNO-Multilevel,           
  DOCKER, DRACO, updates on ESD, Fragmentator, GOAT, IRC, LR-CPCM, L-BFGS, MBIS, meta-GGA TD-DFT gradient, ML-optimized integration grids, 
  MM, NACMEs, nearIR, NEB, NEB-TS, NL-DFT gradient (VV10), 2- and 3-layer-ONIOM, interface openCOSMO-RS, QMMM,   
  Crystal-QMMM, RESP, rigid body optimization, SF, symmetry and pop. for TD-DFT, various functionals, SOLVATOR                                   
                                                                         
[Other institutions]                                                     
  V. Asgeirsson          : NEB                                           
  Christoph Bannwarth    : sTDA-DFT, sTD-DFT, PBEh-3c, B97-3c, D3        
  Giovanni Bistoni       : ETS/NOCV, ADLD/ADEX, COVALED                  
  Martin Brehm           : Molecular dynamics                            
  Ronald Cardenas        : ETS/NOCV                                      
  Martina Colucci        : COVALED                                       
  Sebastian Ehlert       : rSCAN, r2SCAN, r2SCAN-3c, D4, dhf basis sets  
  Marvin Friede          : D4 for Fr, Ra, Ac-Lr                          
  Lars Goerigk           : TD-DFT with DH, B97 family of functionals     
  Stefan Grimme          : VdW corrections, initial TS optimization, DFT functionals, gCP, sTDA/sTD-DF 
  Waldemar Hujo          : DFT-NL                                        
  H. Jonsson             : NEB                                           
  Holger Kruse           : gCP                                           
  Marcel Mueller         : wB97X-3c, vDZP basis set                      
  Hagen Neugebauer       : wr2SCAN, Native XTB                           
  Gianluca Regni         : ADLD/ADEX                                     
  Tobias Risthaus        : pre 6.0 range-separated hybrid DFT and stability analysis
  Lukas Wittmann         : regularized MP2, r2SCAN double-hybrids, wr2SCAN        
                                                                         
We gratefully acknowledge several colleagues who have allowed us to      
interface, adapt or use parts of their codes:                            
  Ed Valeev, F. Pavosevic, A. Kumar             : LibInt (2-el integral package), F12 methods 
  Garnet Chan, S. Sharma, J. Yang, R. Olivares  : DMRG                   
  Ulf Ekstrom                                   : XCFun DFT Library      
  Mihaly Kallay                                 : mrcc  (arbitrary order and MRCC methods)
  Frank Weinhold                                : gennbo (NPA and NBO analysis)           
  Simon Mueller                                 : openCOSMO-RS                            
  Christopher J. Cramer and Donald G. Truhlar   : smd solvation model                     
  S Lehtola, MJT Oliveira, MAL Marques          : LibXC Library                           
  Liviu Ungur et al                             : ANISO software                          


 Your calculation uses the libint2 library for the computation of 2-el integrals
 For citations please refer to: http://libint.valeyev.net

 Your ORCA version has been built with support for libXC version: 7.0.0
 For citations please refer to: https://libxc.gitlab.io

 This ORCA versions uses:
   CBLAS   interface :  Fast vector & matrix operations
   LAPACKE interface :  Fast linear algebra routines
   SCALAPACK package :  Parallel linear algebra routines
   Shared memory     :  Shared parallel matrices


  ***********************************
  * Starting time: Mon Jul 13 22:34:32 2026
  * Host name:     Angzes-MacBook-Pro.local
  * Process ID:    89577
  * Working dir.:  /Users/liangze/Desktop/Tsinghua 2026 Summer/pdi_h2o2_production/pdi-theory-demo/calculations/pdi/geometry_optimization
  ***********************************

NOTE: MaxCore=8000 MB was set to SCF,MP2,MDCI,CIPSI,MRCI,RASCI and CIS
      => If you want to overwrite this, your respective input block should be placed after the MaxCore statement


***************************************
The coordinates will be read from file: pdi_structure_initial.xyz
***************************************


Your calculation utilizes the geometrical counterpoise correction gCP
Please cite in your paper:
H.Kruse, S. Grimme J.Chem.Phys., 136, (2012), 154101 
   

Your calculation utilizes the atom-pairwise dispersion correction
based on EEQ partial charges (D4)


================================================================================

----- Orbital basis set information -----
Your calculation utilizes the basis: def2-mTZVPP
   Stefan Grimme, Andreas Hansen, Sebastian Ehlert, and Jan-Michael Mewes 
   J. Chem. Phys. 154, 064103 (2021). DOI: 10.1063/5.0040021

----- AuxJ basis set information -----
Your calculation utilizes the basis: def2-mTZVPP/J
   Stefan Grimme, Andreas Hansen, Sebastian Ehlert, and Jan-Michael Mewes 
   J. Chem. Phys. 154, 000000 (2021). DOI: 10.1063/5.0040021

================================================================================
                                        WARNINGS
                       Please study these warnings very carefully!
================================================================================



WARNING: SCAN, rSCAN, or r2SCAN functional requested.
  ===> : libXC variant has now been activated.



WARNING: Geometry Optimization
  ===> : Switching off AutoStart
         For restart on a previous wavefunction, please use MOREAD

================================================================================
                                       INPUT FILE
================================================================================
NAME = pdi_opt.inp
|  1> ! r2SCAN-3c Opt TightOpt TightSCF NoSym
|  2> 
|  3> %pal
|  4>   nprocs 4
|  5> end
|  6> 
|  7> %maxcore 8000
|  8> 
|  9> %geom
| 10>   Calc_Hess true
| 11>   Recalc_Hess 5
| 12> end
| 13> 
| 14> * xyzfile 0 1 pdi_structure_initial.xyz
| 15> 
| 16>                          ****END OF INPUT****
================================================================================

                       *****************************
                       * Geometry Optimization Run *
                       *****************************

Geometry optimization settings:
Update method            Update   .... BFGS
Choice of coordinates    CoordSys .... (2022) Redundant Internals
Initial Hessian          InHess   .... Almloef's Model
Max. no of cycles        MaxIter  .... 120

Convergence Tolerances:
Energy Change            TolE     ....  1.0000e-06 Eh
Max. Gradient            TolMAXG  ....  1.0000e-04 Eh/bohr
RMS Gradient             TolRMSG  ....  3.0000e-05 Eh/bohr
Max. Displacement        TolMAXD  ....  1.0000e-03 bohr
RMS Displacement         TolRMSD  ....  6.0000e-04 bohr
Strict Convergence                .... False

------------------------------------------------------------------------------
                        ORCA OPTIMIZATION COORDINATE SETUP
------------------------------------------------------------------------------

The optimization will be done in redundant internal coordinates (2022)
Making redundant internal coordinates   ...  (2022 redundants) done
Evaluating the initial hessian          ...  (Is done on the fly) done
Evaluating the coordinates              ...  done
Calculating the B-matrix                .... done
Calculating the G-matrix                .... done
The number of degrees of freedom        ....  252

    -----------------------------------------------------------------
                    Redundant Internal Coordinates


    -----------------------------------------------------------------
         Definition                    Initial Value    d2E/dq (diagonal element)
    -----------------------------------------------------------------
      1. B(C   1,C   0)                  1.4868         0.000000   
      2. B(C   2,C   1)                  1.4635         0.000000   
      3. B(C   3,C   2)                  1.4635         0.000000   
      4. B(C   4,C   3)                  1.4866         0.000000   
      5. B(C   5,C   4)                  1.4635         0.000000   
      6. B(C   5,C   0)                  1.4635         0.000000   
      7. B(C   6,C   1)                  1.4020         0.000000   
      8. B(C   7,C   6)                  1.3916         0.000000   
      9. B(C   8,C   7)                  1.3815         0.000000   
     10. B(C   9,C   8)                  1.4158         0.000000   
     11. B(C   9,C   2)                  1.4495         0.000000   
     12. B(C  10,C   9)                  1.4158         0.000000   
     13. B(C  11,C  10)                  1.3816         0.000000   
     14. B(C  12,C  11)                  1.3916         0.000000   
     15. B(C  12,C   3)                  1.4022         0.000000   
     16. B(C  13,C   4)                  1.4022         0.000000   
     17. B(C  14,C  13)                  1.3916         0.000000   
     18. B(C  15,C  14)                  1.3816         0.000000   
     19. B(C  16,C  15)                  1.4158         0.000000   
     20. B(C  16,C   5)                  1.4495         0.000000   
     21. B(C  17,C  16)                  1.4158         0.000000   
     22. B(C  18,C  17)                  1.3815         0.000000   
     23. B(C  19,C  18)                  1.3916         0.000000   
     24. B(C  19,C   0)                  1.4020         0.000000   
     25. B(C  20,C  15)                  1.4766         0.000000   
     26. B(N  21,C  20)                  1.3909         0.000000   
     27. B(C  22,N  21)                  1.3908         0.000000   
     28. B(C  22,C  17)                  1.4767         0.000000   
     29. B(C  23,C   8)                  1.4767         0.000000   
     30. B(N  24,C  23)                  1.3909         0.000000   
     31. B(C  25,C  10)                  1.4766         0.000000   
     32. B(C  25,N  24)                  1.3909         0.000000   
     33. B(O  26,C  23)                  1.2199         0.000000   
     34. B(O  27,C  25)                  1.2199         0.000000   
     35. B(O  28,C  20)                  1.2199         0.000000   
     36. B(O  29,C  22)                  1.2199         0.000000   
     37. B(H  30,N  21)                  1.0138         0.000000   
     38. B(H  31,N  24)                  1.0138         0.000000   
     39. B(H  32,C   6)                  1.0831         0.000000   
     40. B(H  33,C   7)                  1.0860         0.000000   
     41. B(H  34,C  11)                  1.0860         0.000000   
     42. B(H  35,C  12)                  1.0831         0.000000   
     43. B(H  36,C  13)                  1.0831         0.000000   
     44. B(H  37,C  14)                  1.0860         0.000000   
     45. B(H  38,C  18)                  1.0860         0.000000   
     46. B(H  39,C  19)                  1.0831         0.000000   
     47. A(C   5,C   0,C  19)          116.2366         0.000000   
     48. A(C   1,C   0,C  19)          120.0959         0.000000   
     49. A(C   1,C   0,C   5)          115.2540         0.000000   
     50. A(C   2,C   1,C   6)          116.2383         0.000000   
     51. A(C   0,C   1,C   2)          115.2540         0.000000   
     52. A(C   0,C   1,C   6)          120.0971         0.000000   
     53. A(C   3,C   2,C   9)          115.4080         0.000000   
     54. A(C   1,C   2,C   3)          116.4521         0.000000   
     55. A(C   1,C   2,C   9)          115.4484         0.000000   
     56. A(C   2,C   3,C  12)          116.2018         0.000000   
     57. A(C   2,C   3,C   4)          115.3471         0.000000   
     58. A(C   4,C   3,C  12)          120.0491         0.000000   
     59. A(C   3,C   4,C  13)          120.0534         0.000000   
     60. A(C   5,C   4,C  13)          116.2053         0.000000   
     61. A(C   3,C   4,C   5)          115.3477         0.000000   
     62. A(C   0,C   5,C  16)          115.4497         0.000000   
     63. A(C   4,C   5,C  16)          115.4088         0.000000   
     64. A(C   0,C   5,C   4)          116.4565         0.000000   
     65. A(C   1,C   6,C   7)          121.6072         0.000000   
     66. A(C   7,C   6,H  32)          117.7120         0.000000   
     67. A(C   1,C   6,H  32)          120.0976         0.000000   
     68. A(C   6,C   7,H  33)          120.8546         0.000000   
     69. A(C   6,C   7,C   8)          120.4550         0.000000   
     70. A(C   8,C   7,H  33)          118.6163         0.000000   
     71. A(C   7,C   8,C   9)          119.8489         0.000000   
     72. A(C   9,C   8,C  23)          120.6679         0.000000   
     73. A(C   7,C   8,C  23)          119.3505         0.000000   
     74. A(C   2,C   9,C   8)          118.7860         0.000000   
     75. A(C   2,C   9,C  10)          118.7763         0.000000   
     76. A(C   8,C   9,C  10)          120.0653         0.000000   
     77. A(C   9,C  10,C  11)          119.8460         0.000000   
     78. A(C  11,C  10,C  25)          119.3531         0.000000   
     79. A(C   9,C  10,C  25)          120.6719         0.000000   
     80. A(C  12,C  11,H  34)          120.8543         0.000000   
     81. A(C  10,C  11,C  12)          120.4511         0.000000   
     82. A(C  10,C  11,H  34)          118.6205         0.000000   
     83. A(C   3,C  12,C  11)          121.5918         0.000000   
     84. A(C  11,C  12,H  35)          117.7052         0.000000   
     85. A(C   3,C  12,H  35)          120.1217         0.000000   
     86. A(C  14,C  13,H  36)          117.7059         0.000000   
     87. A(C   4,C  13,C  14)          121.5917         0.000000   
     88. A(C   4,C  13,H  36)          120.1206         0.000000   
     89. A(C  15,C  14,H  37)          118.6202         0.000000   
     90. A(C  13,C  14,C  15)          120.4511         0.000000   
     91. A(C  13,C  14,H  37)          120.8547         0.000000   
     92. A(C  14,C  15,C  16)          119.8462         0.000000   
     93. A(C  16,C  15,C  20)          120.6722         0.000000   
     94. A(C  14,C  15,C  20)          119.3522         0.000000   
     95. A(C  15,C  16,C  17)          120.0633         0.000000   
     96. A(C   5,C  16,C  17)          118.7831         0.000000   
     97. A(C   5,C  16,C  15)          118.7786         0.000000   
     98. A(C  18,C  17,C  22)          119.3509         0.000000   
     99. A(C  16,C  17,C  22)          120.6696         0.000000   
    100. A(C  16,C  17,C  18)          119.8481         0.000000   
    101. A(C  19,C  18,H  38)          120.8541         0.000000   
    102. A(C  17,C  18,H  38)          118.6159         0.000000   
    103. A(C  17,C  18,C  19)          120.4556         0.000000   
    104. A(C  18,C  19,H  39)          117.7125         0.000000   
    105. A(C   0,C  19,H  39)          120.0980         0.000000   
    106. A(C   0,C  19,C  18)          121.6075         0.000000   
    107. A(N  21,C  20,O  28)          120.8310         0.000000   
    108. A(C  15,C  20,O  28)          123.9366         0.000000   
    109. A(C  15,C  20,N  21)          115.2309         0.000000   
    110. A(C  22,N  21,H  30)          116.1023         0.000000   
    111. A(C  20,N  21,H  30)          116.1027         0.000000   
    112. A(C  20,N  21,C  22)          127.7950         0.000000   
    113. A(N  21,C  22,O  29)          120.8318         0.000000   
    114. A(C  17,C  22,O  29)          123.9360         0.000000   
    115. A(C  17,C  22,N  21)          115.2307         0.000000   
    116. A(N  24,C  23,O  26)          120.8311         0.000000   
    117. A(C   8,C  23,O  26)          123.9371         0.000000   
    118. A(C   8,C  23,N  24)          115.2299         0.000000   
    119. A(C  25,N  24,H  31)          116.1021         0.000000   
    120. A(C  23,N  24,H  31)          116.1018         0.000000   
    121. A(C  23,N  24,C  25)          127.7949         0.000000   
    122. A(N  24,C  25,O  27)          120.8311         0.000000   
    123. A(C  10,C  25,O  27)          123.9365         0.000000   
    124. A(C  10,C  25,N  24)          115.2305         0.000000   
    125. D(C   6,C   1,C   0,C   5)   -172.9733         0.000000   
    126. D(C   2,C   1,C   0,C  19)   -172.9791         0.000000   
    127. D(C   2,C   1,C   0,C   5)     40.0538         0.000000   
    128. D(C   6,C   1,C   0,C  19)    -26.0063         0.000000   
    129. D(C   9,C   2,C   1,C   6)     31.1954         0.000000   
    130. D(C   9,C   2,C   1,C   0)    179.4786         0.000000   
    131. D(C   3,C   2,C   1,C   6)    171.3247         0.000000   
    132. D(C   3,C   2,C   1,C   0)    -40.3921         0.000000   
    133. D(C   4,C   3,C   2,C   9)   -179.7344         0.000000   
    134. D(C  12,C   3,C   2,C   1)   -171.5975         0.000000   
    135. D(C  12,C   3,C   2,C   9)    -31.4522         0.000000   
    136. D(C   4,C   3,C   2,C   1)     40.1203         0.000000   
    137. D(C   5,C   4,C   3,C  12)    173.5138         0.000000   
    138. D(C  13,C   4,C   3,C   2)    173.4977         0.000000   
    139. D(C   5,C   4,C   3,C   2)    -39.5080         0.000000   
    140. D(C  13,C   4,C   3,C  12)     26.5195         0.000000   
    141. D(C  16,C   5,C   4,C  13)    -31.4380         0.000000   
    142. D(C   0,C   5,C   4,C  13)   -171.5925         0.000000   
    143. D(C   0,C   5,C   4,C   3)     40.1095         0.000000   
    144. D(C  16,C   5,C   0,C  19)     31.2029         0.000000   
    145. D(C  16,C   5,C   0,C   1)    179.4807         0.000000   
    146. D(C  16,C   5,C   4,C   3)   -179.7360         0.000000   
    147. D(C   4,C   5,C   0,C  19)    171.3412         0.000000   
    148. D(C   4,C   5,C   0,C   1)    -40.3810         0.000000   
    149. D(H  32,C   6,C   1,C   2)    167.1117         0.000000   
    150. D(H  32,C   6,C   1,C   0)     20.4493         0.000000   
    151. D(C   7,C   6,C   1,C   2)    -21.8461         0.000000   
    152. D(C   7,C   6,C   1,C   0)   -168.5085         0.000000   
    153. D(H  33,C   7,C   6,C   1)   -174.9845         0.000000   
    154. D(C   8,C   7,C   6,H  32)    179.4377         0.000000   
    155. D(C   8,C   7,C   6,C   1)      8.1902         0.000000   
    156. D(H  33,C   7,C   6,H  32)     -3.7371         0.000000   
    157. D(C  23,C   8,C   7,H  33)      2.8617         0.000000   
    158. D(C  23,C   8,C   7,C   6)    179.7571         0.000000   
    159. D(C   9,C   8,C   7,H  33)    178.7031         0.000000   
    160. D(C   9,C   8,C   7,C   6)     -4.4015         0.000000   
    161. D(C  10,C   9,C   8,C  23)     -6.7348         0.000000   
    162. D(C   2,C   9,C   8,C  23)   -169.0439         0.000000   
    163. D(C   2,C   9,C   8,C   7)     15.1704         0.000000   
    164. D(C  10,C   9,C   2,C   3)     28.5356         0.000000   
    165. D(C  10,C   9,C   2,C   1)    169.0858         0.000000   
    166. D(C  10,C   9,C   8,C   7)    177.4795         0.000000   
    167. D(C   8,C   9,C   2,C   3)   -168.9250         0.000000   
    168. D(C   8,C   9,C   2,C   1)    -28.3749         0.000000   
    169. D(C  25,C  10,C   9,C   8)      6.6925         0.000000   
    170. D(C  25,C  10,C   9,C   2)    169.0033         0.000000   
    171. D(C  11,C  10,C   9,C   8)   -177.4626         0.000000   
    172. D(C  11,C  10,C   9,C   2)    -15.1518         0.000000   
    173. D(H  34,C  11,C  10,C  25)     -2.9049         0.000000   
    174. D(H  34,C  11,C  10,C   9)   -178.8048         0.000000   
    175. D(C  12,C  11,C  10,C  25)   -179.8012         0.000000   
    176. D(C  12,C  11,C  10,C   9)      4.2989         0.000000   
    177. D(H  35,C  12,C  11,H  34)      3.7141         0.000000   
    178. D(C   3,C  12,C  11,H  34)    174.9779         0.000000   
    179. D(C   3,C  12,C  11,C  10)     -8.1958         0.000000   
    180. D(H  35,C  12,C   3,C   4)    -20.2007         0.000000   
    181. D(H  35,C  12,C   3,C   2)   -166.9093         0.000000   
    182. D(H  35,C  12,C  11,C  10)   -179.4596         0.000000   
    183. D(C  11,C  12,C   3,C   4)    168.7432         0.000000   
    184. D(C  11,C  12,C   3,C   2)     22.0345         0.000000   
    185. D(H  36,C  13,C   4,C   3)    -20.1977         0.000000   
    186. D(C  14,C  13,C   4,C   5)     22.0260         0.000000   
    187. D(C  14,C  13,C   4,C   3)    168.7500         0.000000   
    188. D(H  36,C  13,C   4,C   5)   -166.9216         0.000000   
    189. D(H  37,C  14,C  13,H  36)      3.7135         0.000000   
    190. D(H  37,C  14,C  13,C   4)    174.9734         0.000000   
    191. D(C  15,C  14,C  13,H  36)   -179.4552         0.000000   
    192. D(C  15,C  14,C  13,C   4)     -8.1953         0.000000   
    193. D(C  20,C  15,C  14,H  37)     -2.9041         0.000000   
    194. D(C  20,C  15,C  14,C  13)   -179.8053         0.000000   
    195. D(C  16,C  15,C  14,H  37)   -178.7977         0.000000   
    196. D(C  16,C  15,C  14,C  13)      4.3011         0.000000   
    197. D(C  17,C  16,C  15,C  20)      6.7124         0.000000   
    198. D(C  17,C  16,C  15,C  14)   -177.4492         0.000000   
    199. D(C   5,C  16,C  15,C  20)    169.0134         0.000000   
    200. D(C   5,C  16,C  15,C  14)    -15.1481         0.000000   
    201. D(C  17,C  16,C   5,C   4)   -168.9467         0.000000   
    202. D(C  17,C  16,C   5,C   0)    -28.3862         0.000000   
    203. D(C  15,C  16,C   5,C   4)     28.5234         0.000000   
    204. D(C  15,C  16,C   5,C   0)    169.0839         0.000000   
    205. D(C  22,C  17,C  16,C  15)     -6.7200         0.000000   
    206. D(C  22,C  17,C  16,C   5)   -169.0203         0.000000   
    207. D(C  18,C  17,C  16,C  15)    177.4737         0.000000   
    208. D(C  18,C  17,C  16,C   5)     15.1734         0.000000   
    209. D(H  38,C  18,C  17,C  22)      2.8561         0.000000   
    210. D(H  38,C  18,C  17,C  16)    178.7179         0.000000   
    211. D(C  19,C  18,C  17,C  22)    179.7451         0.000000   
    212. D(C  19,C  18,C  17,C  16)     -4.3931         0.000000   
    213. D(H  39,C  19,C  18,H  38)     -3.7477         0.000000   
    214. D(H  39,C  19,C  18,C  17)    179.4336         0.000000   
    215. D(C   0,C  19,C  18,H  38)   -175.0037         0.000000   
    216. D(C   0,C  19,C  18,C  17)      8.1776         0.000000   
    217. D(H  39,C  19,C   0,C   5)    167.1078         0.000000   
    218. D(H  39,C  19,C   0,C   1)     20.4507         0.000000   
    219. D(C  18,C  19,C   0,C   5)    -21.8413         0.000000   
    220. D(C  18,C  19,C   0,C   1)   -168.4984         0.000000   
    221. D(O  28,C  20,C  15,C  16)    177.0060         0.000000   
    222. D(O  28,C  20,C  15,C  14)      1.1472         0.000000   
    223. D(N  21,C  20,C  15,C  16)     -3.4325         0.000000   
    224. D(N  21,C  20,C  15,C  14)   -179.2913         0.000000   
    225. D(H  30,N  21,C  20,O  28)     -0.2356         0.000000   
    226. D(H  30,N  21,C  20,C  15)   -179.8119         0.000000   
    227. D(C  22,N  21,C  20,O  28)    179.7782         0.000000   
    228. D(C  22,N  21,C  20,C  15)      0.2019         0.000000   
    229. D(O  29,C  22,N  21,H  30)      0.2338         0.000000   
    230. D(O  29,C  22,N  21,C  20)   -179.7800         0.000000   
    231. D(C  17,C  22,N  21,H  30)    179.8046         0.000000   
    232. D(C  17,C  22,N  21,C  20)     -0.2092         0.000000   
    233. D(O  29,C  22,C  17,C  18)     -1.1698         0.000000   
    234. D(O  29,C  22,C  17,C  16)   -176.9968         0.000000   
    235. D(N  21,C  22,C  17,C  18)    179.2744         0.000000   
    236. D(N  21,C  22,C  17,C  16)      3.4474         0.000000   
    237. D(O  26,C  23,C   8,C   9)   -176.8787         0.000000   
    238. D(O  26,C  23,C   8,C   7)     -1.0722         0.000000   
    239. D(N  24,C  23,C   8,C   9)      3.6193         0.000000   
    240. D(N  24,C  23,C   8,C   7)    179.4258         0.000000   
    241. D(H  31,N  24,C  23,O  26)      0.3608         0.000000   
    242. D(H  31,N  24,C  23,C   8)    179.8796         0.000000   
    243. D(C  25,N  24,C  23,O  26)    179.9378         0.000000   
    244. D(C  25,N  24,C  23,C   8)     -0.5434         0.000000   
    245. D(C  10,C  25,N  24,H  31)   -179.9193         0.000000   
    246. D(C  10,C  25,N  24,C  23)      0.5037         0.000000   
    247. D(O  27,C  25,C  10,C  11)      1.0999         0.000000   
    248. D(O  27,C  25,C  10,C   9)    176.9651         0.000000   
    249. D(N  24,C  25,C  10,C  11)   -179.4029         0.000000   
    250. D(O  27,C  25,N  24,C  23)   -179.9820         0.000000   
    251. D(N  24,C  25,C  10,C   9)     -3.5377         0.000000   
    252. D(O  27,C  25,N  24,H  31)     -0.4050         0.000000   
    -----------------------------------------------------------------

Number of atoms                         .... 40
Number of degrees of freedom            .... 252


         *************************************************************
         *                GEOMETRY OPTIMIZATION CYCLE   1            *
         *************************************************************
---------------------------------
CARTESIAN COORDINATES (ANGSTROEM)
---------------------------------
  C     -0.732390    1.244726   -0.132325
  C      0.729335    1.241534    0.139687
  C      1.425161   -0.000068   -0.201162
  C      0.727964   -1.246737    0.117557
  C     -0.734820   -1.243628   -0.147717
  C     -1.430121   -0.000809    0.189634
  C      1.471374    2.423902    0.009028
  C      2.862890    2.416951    0.022810
  C      3.557459    1.222997   -0.002598
  C      2.852475   -0.003649    0.051339
  C      3.555610   -1.229955   -0.028154
  C      2.859147   -2.423119   -0.027965
  C      1.467627   -2.427487   -0.040074
  C     -1.476326   -2.425494   -0.008127
  C     -2.867836   -2.418790   -0.020316
  C     -3.562456   -1.224692   -0.002078
  C     -2.857422    0.001598   -0.062907
  C     -3.560539    1.228352    0.009871
  C     -2.864132    2.421488    0.002752
  C     -1.472603    2.426099    0.016406
  C     -5.038908   -1.245978   -0.011217
  N     -5.649898    0.003486   -0.007013
  C     -5.037004    1.251987    0.000777
  C      5.033957    1.244217    0.007342
  N      5.644941   -0.005163   -0.007371
  C      5.032031   -1.253636   -0.019624
  O      5.700308    2.265934    0.018177
  O      5.696812   -2.276371   -0.031670
  O     -5.705264   -2.267758   -0.014020
  O     -5.701779    2.274763    0.007758
  H     -6.663682    0.004280   -0.010202
  H      6.658719   -0.005992   -0.002690
  H      0.972182    3.384591    0.039486
  H      3.424736    3.346080    0.001997
  H      3.419397   -3.352469   -0.069820
  H      0.966970   -3.387898   -0.030354
  H     -0.977143   -3.386410   -0.032454
  H     -3.429536   -3.347801    0.007277
  H     -3.424544    3.351041    0.038086
  H     -0.971939    3.386373    0.000608

----------------------------
CARTESIAN COORDINATES (A.U.)
----------------------------
  NO LB      ZA    FRAG     MASS         X           Y           Z
   0 C     6.0000    0    12.011   -1.384017    2.352191   -0.250057
   1 C     6.0000    0    12.011    1.378242    2.346159    0.263970
   2 C     6.0000    0    12.011    2.693165   -0.000129   -0.380141
   3 C     6.0000    0    12.011    1.375653   -2.355992    0.222151
   4 C     6.0000    0    12.011   -1.388609   -2.350117   -0.279144
   5 C     6.0000    0    12.011   -2.702536   -0.001528    0.358356
   6 C     6.0000    0    12.011    2.780494    4.580510    0.017061
   7 C     6.0000    0    12.011    5.410077    4.567375    0.043105
   8 C     6.0000    0    12.011    6.722623    2.311129   -0.004910
   9 C     6.0000    0    12.011    5.390397   -0.006895    0.097016
  10 C     6.0000    0    12.011    6.719130   -2.324278   -0.053204
  11 C     6.0000    0    12.011    5.403004   -4.579032   -0.052846
  12 C     6.0000    0    12.011    2.773412   -4.587285   -0.075729
  13 C     6.0000    0    12.011   -2.789852   -4.583520   -0.015358
  14 C     6.0000    0    12.011   -5.419425   -4.570851   -0.038392
  15 C     6.0000    0    12.011   -6.732066   -2.314332   -0.003926
  16 C     6.0000    0    12.011   -5.399745    0.003020   -0.118876
  17 C     6.0000    0    12.011   -6.728444    2.321250    0.018654
  18 C     6.0000    0    12.011   -5.412426    4.575949    0.005201
  19 C     6.0000    0    12.011   -2.782817    4.584663    0.031003
  20 C     6.0000    0    12.011   -9.522156   -2.354556   -0.021197
  21 N     7.0000    0    14.007  -10.676759    0.006588   -0.013252
  22 C     6.0000    0    12.011   -9.518559    2.365913    0.001468
  23 C     6.0000    0    12.011    9.512799    2.351230    0.013875
  24 N     7.0000    0    14.007   10.667392   -0.009757   -0.013930
  25 C     6.0000    0    12.011    9.509160   -2.369029   -0.037084
  26 O     8.0000    0    15.999   10.772021    4.281994    0.034349
  27 O     8.0000    0    15.999   10.765414   -4.301717   -0.059847
  28 O     8.0000    0    15.999  -10.781387   -4.285441   -0.026493
  29 O     8.0000    0    15.999  -10.774800    4.298678    0.014660
  30 H     1.0000    0     1.008  -12.592533    0.008088   -0.019279
  31 H     1.0000    0     1.008   12.583156   -0.011323   -0.005083
  32 H     1.0000    0     1.008    1.837158    6.395950    0.074618
  33 H     1.0000    0     1.008    6.471813    6.323174    0.003774
  34 H     1.0000    0     1.008    6.461725   -6.335248   -0.131940
  35 H     1.0000    0     1.008    1.827308   -6.402200   -0.057361
  36 H     1.0000    0     1.008   -1.846532   -6.399387   -0.061328
  37 H     1.0000    0     1.008   -6.480883   -6.326428    0.013751
  38 H     1.0000    0     1.008   -6.471450    6.332550    0.071972
  39 H     1.0000    0     1.008   -1.836698    6.399318    0.001150

--------------------------------
INTERNAL COORDINATES (ANGSTROEM)
--------------------------------
 C      0   0   0     0.000000000000     0.00000000     0.00000000
 C      1   0   0     1.486822061833     0.00000000     0.00000000
 C      2   1   0     1.463533059006   115.25398044     0.00000000
 C      3   2   1     1.463505895450   116.45209266   319.60789907
 C      4   3   2     1.486646238610   115.34710677    40.12027858
 C      1   2   3     1.463502981057   115.25400437    40.05383609
 C      2   1   3     1.402029868651   120.09712535   146.97286546
 C      7   2   1     1.391601126951   121.60721065   191.49146784
 C      8   7   2     1.381520176814   120.45496617     8.19022067
 C      9   8   7     1.415828788494   119.84890841   355.59849639
 C     10   9   8     1.415819482683   120.06528579   177.47953990
 C     11  10   9     1.381558113979   119.84599592   182.53737684
 C     12  11  10     1.391579520901   120.45105794     4.29891266
 C      5   4   3     1.402185307346   120.05343300   173.49769899
 C     14   5   4     1.391579451781   121.59171109   168.74999450
 C     15  14   5     1.381557256662   120.45114789   351.80468524
 C     16  15  14     1.415824582840   119.84619149     4.30112246
 C     17  16  15     1.415837889228   120.06333938   182.55080904
 C     18  17  16     1.381522745707   119.84806520   177.47366264
 C     19  18  17     1.391603541923   120.45560953   355.60685014
 C     16  15  14     1.476633773692   119.35224558   180.19467551
 N     21  16  15     1.390857833204   115.23090307   180.70873539
 C     22  21  16     1.390846238820   127.79504956     0.20186578
 C      9   8   7     1.476683476392   119.35049001   179.75710206
 N     24   9   8     1.390852287120   115.22994821   179.42583496
 C     25  24   9     1.390860419434   127.79485288   359.45661979
 O     24   9   8     1.219854960830   123.93706703   358.92783187
 O     26  25  24     1.219862628426   120.83110451   180.01796829
 O     21  16  15     1.219865898016   123.93658577     1.14723475
 O     23  22  21     1.219853949508   120.83176625   180.22002866
 H     22  21  16     1.013789397316   116.10268345   180.18806274
 H     25  24   9     1.013790018528   116.10184065   179.87960408
 H      7   2   1     1.083071824204   120.09757373    20.44925772
 H      8   7   2     1.085994901736   120.85459209   185.01547735
 H     12  11  10     1.085966681660   118.62048258   181.19521416
 H     13  12  11     1.083117030343   117.70517106   180.54040588
 H     14   5   4     1.083113098802   120.12060810   339.80234817
 H     15  14   5     1.085969335628   120.85474260   174.97339741
 H     19  18  17     1.085992250738   118.61586865   178.71791194
 H     20  19  18     1.083070052353   117.71246252   179.43363224

---------------------------
INTERNAL COORDINATES (A.U.)
---------------------------
 C      0   0   0     0.000000000000     0.00000000     0.00000000
 C      1   0   0     2.809686506737     0.00000000     0.00000000
 C      2   1   0     2.765676669462   115.25398044     0.00000000
 C      3   2   1     2.765625337779   116.45209266   319.60789907
 C      4   3   2     2.809354248996   115.34710677    40.12027858
 C      1   2   3     2.765619830375   115.25400437    40.05383609
 C      2   1   3     2.649452483328   120.09712535   146.97286546
 C      7   2   1     2.629745017594   121.60721065   191.49146784
 C      8   7   2     2.610694782665   120.45496617     8.19022067
 C      9   8   7     2.675528662776   119.84890841   355.59849639
 C     10   9   8     2.675511077341   120.06528579   177.47953990
 C     11  10   9     2.610766473517   119.84599592   182.53737684
 C     12  11  10     2.629704188076   120.45105794     4.29891266
 C      5   4   3     2.649746219892   120.05343300   173.49769899
 C     14   5   4     2.629704057458   121.59171109   168.74999450
 C     15  14   5     2.610764853423   120.45114789   351.80468524
 C     16  15  14     2.675520715240   119.84619149     4.30112246
 C     17  16  15     2.675545860669   120.06333938   182.55080904
 C     18  17  16     2.610699637168   119.84806520   177.47366264
 C     19  18  17     2.629749581230   120.45560953   355.60685014
 C     16  15  14     2.790433432377   119.35224558   180.19467551
 N     21  16  15     2.628340395974   115.23090307   180.70873539
 C     22  21  16     2.628318485764   127.79504956     0.20186578
 C      9   8   7     2.790527356868   119.35049001   179.75710206
 N     24   9   8     2.628329915395   115.22994821   179.42583496
 C     25  24   9     2.628345283240   127.79485288   359.45661979
 O     24   9   8     2.305191799073   123.93706703   358.92783187
 O     26  25  24     2.305206288730   120.83110451   180.01796829
 O     21  16  15     2.305212467361   123.93658577     1.14723475
 O     23  22  21     2.305189887952   120.83176625   180.22002866
 H     22  21  16     1.915784318401   116.10268345   180.18806274
 H     25  24   9     1.915785492322   116.10184065   179.87960408
 H      7   2   1     2.046709131111   120.09757373    20.44925772
 H      8   7   2     2.052232947116   120.85459209   185.01547735
 H     12  11  10     2.052179618901   118.62048258   181.19521416
 H     13  12  11     2.046794558333   117.70517106   180.54040588
 H     14   5   4     2.046787128799   120.12060810   339.80234817
 H     15  14   5     2.052184634173   120.85474260   174.97339741
 H     19  18  17     2.052227937455   118.61586865   178.71791194
 H     20  19  18     2.046705782799   117.71246252   179.43363224

---------------------
BASIS SET INFORMATION
---------------------
There are 4 groups of distinct atoms

 Group   1 Type C   : 11s6p1d contracted to 5s3p1d pattern {62111/411/1}
 Group   2 Type N   : 11s6p2d contracted to 5s3p2d pattern {62111/411/11}
 Group   3 Type O   : 11s6p2d contracted to 5s3p2d pattern {62111/411/11}
 Group   4 Type H   : 4s1p contracted to 2s1p pattern {31/1}

Atom   0C    basis set group =>   1
Atom   1C    basis set group =>   1
Atom   2C    basis set group =>   1
Atom   3C    basis set group =>   1
Atom   4C    basis set group =>   1
Atom   5C    basis set group =>   1
Atom   6C    basis set group =>   1
Atom   7C    basis set group =>   1
Atom   8C    basis set group =>   1
Atom   9C    basis set group =>   1
Atom  10C    basis set group =>   1
Atom  11C    basis set group =>   1
Atom  12C    basis set group =>   1
Atom  13C    basis set group =>   1
Atom  14C    basis set group =>   1
Atom  15C    basis set group =>   1
Atom  16C    basis set group =>   1
Atom  17C    basis set group =>   1
Atom  18C    basis set group =>   1
Atom  19C    basis set group =>   1
Atom  20C    basis set group =>   1
Atom  21N    basis set group =>   2
Atom  22C    basis set group =>   1
Atom  23C    basis set group =>   1
Atom  24N    basis set group =>   2
Atom  25C    basis set group =>   1
Atom  26O    basis set group =>   3
Atom  27O    basis set group =>   3
Atom  28O    basis set group =>   3
Atom  29O    basis set group =>   3
Atom  30H    basis set group =>   4
Atom  31H    basis set group =>   4
Atom  32H    basis set group =>   4
Atom  33H    basis set group =>   4
Atom  34H    basis set group =>   4
Atom  35H    basis set group =>   4
Atom  36H    basis set group =>   4
Atom  37H    basis set group =>   4
Atom  38H    basis set group =>   4
Atom  39H    basis set group =>   4
---------------------------------
AUXILIARY/J BASIS SET INFORMATION
---------------------------------
There are 4 groups of distinct atoms

 Group   1 Type C   : 8s3p3d contracted to 6s3p3d pattern {311111/111/111}
 Group   2 Type N   : 8s3p3d contracted to 6s3p3d pattern {311111/111/111}
 Group   3 Type O   : 8s3p3d contracted to 6s3p3d pattern {311111/111/111}
 Group   4 Type H   : 5s2p1d contracted to 3s1p1d pattern {311/2/1}

Atom   0C    basis set group =>   1
Atom   1C    basis set group =>   1
Atom   2C    basis set group =>   1
Atom   3C    basis set group =>   1
Atom   4C    basis set group =>   1
Atom   5C    basis set group =>   1
Atom   6C    basis set group =>   1
Atom   7C    basis set group =>   1
Atom   8C    basis set group =>   1
Atom   9C    basis set group =>   1
Atom  10C    basis set group =>   1
Atom  11C    basis set group =>   1
Atom  12C    basis set group =>   1
Atom  13C    basis set group =>   1
Atom  14C    basis set group =>   1
Atom  15C    basis set group =>   1
Atom  16C    basis set group =>   1
Atom  17C    basis set group =>   1
Atom  18C    basis set group =>   1
Atom  19C    basis set group =>   1
Atom  20C    basis set group =>   1
Atom  21N    basis set group =>   2
Atom  22C    basis set group =>   1
Atom  23C    basis set group =>   1
Atom  24N    basis set group =>   2
Atom  25C    basis set group =>   1
Atom  26O    basis set group =>   3
Atom  27O    basis set group =>   3
Atom  28O    basis set group =>   3
Atom  29O    basis set group =>   3
Atom  30H    basis set group =>   4
Atom  31H    basis set group =>   4
Atom  32H    basis set group =>   4
Atom  33H    basis set group =>   4
Atom  34H    basis set group =>   4
Atom  35H    basis set group =>   4
Atom  36H    basis set group =>   4
Atom  37H    basis set group =>   4
Atom  38H    basis set group =>   4
Atom  39H    basis set group =>   4


           ************************************************************
           *        Program running with 4 parallel MPI-processes     *
           *              working on a common directory               *
           ************************************************************
------------------------------------------------------------------------------
                             ORCA STARTUP CALCULATIONS
                           -- RI-GTO INTEGRALS CHOSEN --
------------------------------------------------------------------------------
------------------------------------------------------------------------------
                   ___                                                        
                  /   \      - P O W E R E D   B Y -                         
                 /     \                                                     
                 |  |  |   _    _      __       _____    __    __             
                 |  |  |  | |  | |    /  \     |  _  \  |  |  /  |          
                  \  \/   | |  | |   /    \    | | | |  |  | /  /          
                 / \  \   | |__| |  /  /\  \   | |_| |  |  |/  /          
                |  |  |   |  __  | /  /__\  \  |    /   |      \           
                |  |  |   | |  | | |   __   |  |    \   |  |\   \          
                \     /   | |  | | |  |  |  |  | |\  \  |  | \   \       
                 \___/    |_|  |_| |__|  |__|  |_| \__\ |__|  \__/        
                                                                              
                      - O R C A' S   B I G   F R I E N D -                    
                                      &                                       
                       - I N T E G R A L  F E E D E R -                       
                                                                              
 v1 FN, 2020, v2 2021, v3 2022-2024                                           
------------------------------------------------------------------------------


----------------------
SHARK INTEGRAL PACKAGE
----------------------

Number of atoms                             ...     40
Number of basis functions                   ...    650
Number of shells                            ...    306
Maximum angular momentum                    ...      2
Integral batch strategy                     ... SHARK/LIBINT Hybrid
RI-J (if used) integral strategy            ... SPLIT-RIJ (Revised 2003 algorithm where possible)
Printlevel                                  ...      1
Contraction scheme used                     ... SEGMENTED contraction
Prescreening option                         ... SCHWARTZ
   Thresh                                   ... 2.500e-11
   Tcut                                     ... 2.500e-12
   Tpresel                                  ... 2.500e-12 
Coulomb Range Separation                    ... NOT USED
Exchange Range Separation                   ... NOT USED
Multipole approximations                    ... NOT USED
Finite Nucleus Model                        ... NOT USED
CABS basis                                  ... NOT available
Auxiliary Coulomb fitting basis             ... AVAILABLE
   # of basis functions in Aux-J            ...   1010
   # of shells in Aux-J                     ...    410
   Maximum angular momentum in Aux-J        ...      2
Auxiliary J/K fitting basis                 ... NOT available
Auxiliary Correlation fitting basis         ... NOT available
Auxiliary 'external' fitting basis          ... NOT available

Checking pre-screening integrals            ... done (  0.0 sec) Dimension = 306
   => SHARK Basis and OBASIS are compatible. Storing Pre-screening
Shell pair information
Shell pair cut-off parameter TPreSel        ...   2.5e-12
Total number of shell pairs                 ...     46971
Shell pairs after pre-screening             ...     30493
Total number of primitive shell pairs       ...    178596
Primitive shell pairs kept                  ...     71173
          la=0 lb=0:   8767 shell pairs
          la=1 lb=0:  11706 shell pairs
          la=1 lb=1:   3829 shell pairs
          la=2 lb=0:   3460 shell pairs
          la=2 lb=1:   2368 shell pairs
          la=2 lb=2:    363 shell pairs

Checking whether 4 symmetric matrices of dimension 650 fit in memory
:Max Core in MB      =   8000.00
 MB in use           =     30.91
 MB left             =   7969.09
 MB needed           =      6.46
 Data fit in memory  = YES
Calculating RI/J V-Matrix + Cholesky decomp.... done (  0.0 sec)
Calculating Nuclear repulsion               ... done (  0.0 sec) ENN=   2611.348504828524 Eh

Diagonalization of the overlap matrix:
Smallest eigenvalue                        ... 1.447e-05
Time for diagonalization                   ...    0.028 sec
Threshold for overlap eigenvalues          ... 1.000e-07
Number of eigenvalues below threshold      ... 0
Time for construction of square roots      ...    0.010 sec
Total time needed                          ...    0.041 sec

-------------------
DFT GRID GENERATION
-------------------

General Integration Accuracy     IntAcc      ... 4.388
Radial Grid Type                 RadialGrid  ... OptM3 with GC (2021)
Angular Grid (max. ang.)         AngularGrid ... 4 (Lebedev-302)
Angular grid pruning method      GridPruning ... 4 (adaptive)
Weight generation scheme         WeightScheme... mBecke (2022)
Basis function cutoff            BFCut       ... 1.0000e-11
Integration weight cutoff        WCut        ... 1.0000e-14
Partially contracted basis set               ... off
Rotationally invariant grid construction     ... off
Angular grids for H and He will be reduced by one unit
Diffuse basis detected: some atoms will have their outermost
                        angular grid increased by 1.

Total number of grid points                  ...   211427
Total number of batches                      ...     3322
Average number of points per batch           ...       63
Average number of grid points per atom       ...     5286
Grids setup in   1.0 sec
Initializing property integral containers    ... done (  0.0 sec)

SHARK setup successfully completed in   1.3 seconds

Maximum memory used throughout the entire STARTUP-calculation: 75.6 MB


           ************************************************************
           *        Program running with 4 parallel MPI-processes     *
           *              working on a common directory               *
           ************************************************************
-------------------------------------------------------------------------------
                                 ORCA GUESS
                   Start orbitals & Density for SCF / CASSCF
-------------------------------------------------------------------------------

------------
SCF SETTINGS
------------
Hamiltonian:
 Density Functional     Method          .... DFT(GTOs)
  Functional kind                       .... Exchange
  Functional name                       .... Re-regularized SCAN exchange by Furness et al
  Functional family                     .... MGGA
  Functional refs                              
    [ 0] J. W. Furness, A. D. Kaplan, J. Ning, J. P. Perdew, and J. Sun.,  J. Phys. Chem. Lett. 11, 8208-8215 (2020), doi: 10.1021/acs.jpclett.0c02405
    [ 1] J. W. Furness, A. D. Kaplan, J. Ning, J. P. Perdew, and J. Sun.,  J. Phys. Chem. Lett. 11, 9248-9248 (2020), doi: 10.1021/acs.jpclett.0c03077
  Functional external parameters        .... 6
    Parameter  0 _c1        =  6.670000e-01 : c1 parameter        
    Parameter  1 _c2        =  8.000000e-01 : c2 parameter        
    Parameter  2 _d         =  1.240000e+00 : d parameter         
    Parameter  3 _k1        =  6.500000e-02 : k1 parameter        
    Parameter  4 _eta       =  1.000000e-03 : eta parameter       
    Parameter  5 _dp2       =  3.610000e-01 : dp2 parameter       
  Functional kind                       .... Correlation
  Functional name                       .... Re-regularized SCAN correlation by Furness et al
  Functional family                     .... MGGA
  Functional refs                              
    [ 0] J. W. Furness, A. D. Kaplan, J. Ning, J. P. Perdew, and J. Sun.,  J. Phys. Chem. Lett. 11, 8208-8215 (2020), doi: 10.1021/acs.jpclett.0c02405
    [ 1] J. W. Furness, A. D. Kaplan, J. Ning, J. P. Perdew, and J. Sun.,  J. Phys. Chem. Lett. 11, 9248-9248 (2020), doi: 10.1021/acs.jpclett.0c03077
  Functional external parameters        .... 1
    Parameter  0 _eta       =  1.000000e-03 : Regularization parameter
 Gradients option       PostSCFGGA      .... off
 RI-approximation to the Coulomb term is turned on
   Number of AuxJ basis functions       .... 1010


General Settings:
 Integral files         IntName         .... pdi_opt
 Hartree-Fock type      HFTyp           .... RHF
 Total Charge           Charge          ....    0
 Multiplicity           Mult            ....    1
 Number of Electrons    NEL             ....  200
 Basis Dimension        Dim             ....  650
 Nuclear Repulsion      ENuc            ....   2611.3485048285 Eh

Convergence Acceleration:
 AO-DIIS                CNVDIIS         .... on
   Start iteration      DIISMaxIt       ....    12
   Startup error        DIISStart       ....  0.200000
   # of expansion vecs  DIISMaxEq       ....     5
   Bias factor          DIISBfac        ....   1.050
   Max. coefficient     DIISMaxC        ....  10.000
 MO-DIIS                CNVKDIIS        .... off
 Trust-Rad. Augm. Hess. CNVTRAH         .... auto
   Auto Start mean grad. ratio tolernc. ....  1.125000
   Auto Start start iteration           ....    50
   Auto Start num. interpolation iter.  ....    10
   Max. Number of Micro iterations      ....    24
   Max. Number of Macro iterations      .... Maxiter - #DIIS iter
   Number of Davidson start vectors     ....     2
   Converg. threshold    (grad. norm)   ....   1.000e-05
   Grad. Scal. Fac. for Micro threshold ....   0.100
   Minimum threshold for Micro iter.    ....   1.000e-02
   NR start threshold (gradient norm)   ....   1.000e-04
   Initial trust radius                 ....   0.400
   Minimum AH scaling param. (alpha)    ....   1.000
   Maximum AH scaling param. (alpha)    .... 1000.000
   Quad. conv. algorithm                .... NR
   White noise on init. David. guess    .... on
   Maximum white noise                  ....   0.010
   Pseudo random numbers                .... off
   Inactive MOs                         .... canonical
   Orbital update algorithm             .... Taylor
   Preconditioner                       .... Diag
   Full preconditioner red. dimension   ....   250
   COSX micro iterations for RIJONX calc.... off
 SOSCF                 CNVSOSCF           .... on
   Start iteration     SOSCFMaxIt         ....   150
   Startup grad/error  SOSCFStart         ....  0.003300
   Hessian update      SOSCFHessUp        .... L-BFGS
   Autom. constraints  SOSCFAutoConstrain .... off
 Level Shifting         CNVShift        .... on
   Level shift para.    LevelShift      ....    0.2500
   Turn off err/grad.   ShiftErr        ....    0.0010
 Zerner damping         CNVZerner       .... off
 Static damping         CNVDamp         .... on
   Fraction old density DampFac         ....    0.7000
   Max. Damping (<1)    DampMax         ....    0.9800
   Min. Damping (>=0)   DampMin         ....    0.0000
   Turn off err/grad.   DampErr         ....    0.1000

SCF Procedure:
 Maximum # iterations   MaxIter         ....   125
 SCF integral mode      SCFMode         .... Direct
   Integral package                     .... SHARK and LIBINT hybrid scheme
 Reset frequency        DirectResetFreq ....    20
 Integral Threshold     Thresh          ....  2.500e-11 Eh
 Primitive CutOff       TCut            ....  2.500e-12 Eh

Convergence Tolerance:
 Convergence Check Mode ConvCheckMode   .... Total+1el-Energy
 Convergence forced     ConvForced      .... 0
 Energy Change          TolE            ....  1.000e-08 Eh
 1-El. energy change                    ....  1.000e-05 Eh
 Orbital Gradient       TolG            ....  1.000e-05
 Orbital Rotation angle TolX            ....  1.000e-05
 DIIS Error             TolErr          ....  5.000e-07

------------------------------
INITIAL GUESS: MODEL POTENTIAL
------------------------------
Loading Hartree-Fock densities                     ... done
Calculating cut-offs                               ... done
Initializing the effective Hamiltonian             ... done
Setting up the integral package (SHARK)            ... done
Starting the Coulomb interaction                   ... done (   0.3 sec)
Making the grid                                    ... done (   0.3 sec)
Mapping shells                                     ... done
Starting the XC term evaluation                    ... done (   0.2 sec)
  promolecular density results
     # of electrons  =    199.984926670
     EX              =   -171.487510121
     EC              =     -6.834548448
     EX+EC           =   -178.322058569
Transforming the Hamiltonian                       ... done (   0.0 sec)
Diagonalizing the Hamiltonian                      ... done (   0.0 sec)
Back transforming the eigenvectors                 ... done (   0.0 sec)
Now organizing SCF variables                       ... done
                      ------------------
                      INITIAL GUESS DONE (   0.9 sec)
                      ------------------
             **** ENERGY FILE WAS UPDATED (pdi_opt.en.tmp) ****
Finished Guess after   1.1 sec
Maximum memory used throughout the entire GUESS-calculation: 45.9 MB


           ************************************************************
           *        Program running with 4 parallel MPI-processes     *
           *              working on a common directory               *
           ************************************************************

-------------------------------------------------------------------------------------------
                                      ORCA LEAN-SCF
                              memory conserving SCF solver
-------------------------------------------------------------------------------------------

----------------------------------------D-I-I-S--------------------------------------------
Iteration    Energy (Eh)           Delta-E    RMSDP     MaxDP     DIISErr   Damp  Time(sec)
-------------------------------------------------------------------------------------------
               ***  Starting incremental Fock matrix formation  ***
    1    -1330.2088865224368419     0.00e+00  6.77e-03  1.55e-01  2.76e-01  0.700   2.8
Warning: op=0 Small HOMO/LUMO gap (   0.054) - skipping pre-diagonalization
         Will do a full diagonalization
    2    -1330.5029649943753611    -2.94e-01  4.78e-03  9.95e-02  9.30e-02  0.700   2.6
                               ***Turning on AO-DIIS***
    3    -1330.6046734510050555    -1.02e-01  1.80e-03  3.87e-02  4.08e-02  0.700   2.2
    4    -1330.6702751834995979    -6.56e-02  3.60e-03  8.35e-02  1.87e-02  0.000   2.0
    5    -1330.8162391129458229    -1.46e-01  1.26e-03  3.09e-02  5.31e-03  0.000   2.2
                              *** Initializing SOSCF ***
---------------------------------------S-O-S-C-F--------------------------------------
Iteration    Energy (Eh)           Delta-E    RMSDP     MaxDP     MaxGrad    Time(sec)
--------------------------------------------------------------------------------------
    6    -1330.8171388585410568    -9.00e-04  4.57e-04  9.90e-03  2.46e-03     2.0
               *** Restarting incremental Fock matrix formation ***
    7    -1330.8172027543787408    -6.39e-05  5.27e-04  1.18e-02  8.38e-04     2.9
    8    -1330.8170512109936681     1.52e-04  2.41e-04  6.54e-03  2.07e-03     1.8
    9    -1330.8172402041632267    -1.89e-04  5.75e-05  1.85e-03  8.67e-05     1.7
   10    -1330.8172386758487846     1.53e-06  3.05e-05  1.04e-03  1.85e-04     1.5
   11    -1330.8172409353519470    -2.26e-06  7.59e-06  2.45e-04  2.58e-05     1.4
   12    -1330.8172408490408998     8.63e-08  5.29e-06  1.40e-04  5.06e-05     1.4
   13    -1330.8172409672497452    -1.18e-07  7.00e-06  2.96e-04  7.15e-06     1.3
   14    -1330.8172409801777576    -1.29e-08  3.03e-06  1.07e-04  1.42e-05     1.3
   15    -1330.8172409955341209    -1.54e-08  6.76e-06  2.76e-04  6.18e-07     1.4
                  *** Gradient check signals convergence ***

               *****************************************************
               *                     SUCCESS                       *
               *           SCF CONVERGED AFTER  15 CYCLES          *
               *****************************************************

             **** ENERGY FILE WAS UPDATED (pdi_opt.en.tmp) ****

----------------
TOTAL SCF ENERGY
----------------

Total Energy       :      -1330.81724101613827 Eh          -36213.37818 eV

Components:
Nuclear Repulsion  :       2611.34850482852426 Eh           71058.40536 eV
Electronic Energy  :      -3942.16574584466252 Eh         -107271.78354 eV
One Electron Energy:      -6998.40353196468732 Eh         -190436.24170 eV
Two Electron Energy:       3056.23778612002479 Eh           83164.45816 eV

Virial components:
Potential Energy   :      -2655.92652409881430 Eh          -72271.43493 eV
Kinetic Energy     :       1325.10928308267580 Eh           36058.05675 eV
Virial Ratio       :          2.00430753750376

DFT components:
N(Alpha)           :      100.000023481598 electrons
N(Beta)            :      100.000023481598 electrons
N(Total)           :      200.000046963196 electrons
E(X)               :     -175.078492751875 Eh       
E(C)               :       -6.698379151550 Eh       
E(XC)              :     -181.776871903425 Eh       

---------------
SCF CONVERGENCE
---------------

  Last Energy change         ...    1.5356e-08  Tolerance :   1.0000e-08
  Last MAX-Density change    ...    2.7618e-04  Tolerance :   1.0000e-07
  Last RMS-Density change    ...    6.7603e-06  Tolerance :   5.0000e-09
  Last DIIS Error            ...    2.4552e-03  Tolerance :   5.0000e-07
  Last Orbital Gradient      ...    6.1836e-07  Tolerance :   1.0000e-05
  Last Orbital Rotation      ...    3.4062e-06  Tolerance :   1.0000e-05


----------------
ORBITAL ENERGIES
----------------

  NO   OCC          E(Eh)            E(eV) 
   0   2.0000     -18.949358      -515.6382 
   1   2.0000     -18.949358      -515.6382 
   2   2.0000     -18.949343      -515.6378 
   3   2.0000     -18.949343      -515.6378 
   4   2.0000     -14.228009      -387.1638 
   5   2.0000     -14.228008      -387.1638 
   6   2.0000     -10.166676      -276.6493 
   7   2.0000     -10.166675      -276.6493 
   8   2.0000     -10.166661      -276.6489 
   9   2.0000     -10.166660      -276.6489 
  10   2.0000     -10.099274      -274.8152 
  11   2.0000     -10.099250      -274.8146 
  12   2.0000     -10.099086      -274.8101 
  13   2.0000     -10.099061      -274.8094 
  14   2.0000     -10.096918      -274.7511 
  15   2.0000     -10.096915      -274.7510 
  16   2.0000     -10.094714      -274.6911 
  17   2.0000     -10.094712      -274.6911 
  18   2.0000     -10.083509      -274.3862 
  19   2.0000     -10.083507      -274.3862 
  20   2.0000     -10.083477      -274.3854 
  21   2.0000     -10.083475      -274.3853 
  22   2.0000     -10.078786      -274.2577 
  23   2.0000     -10.078785      -274.2577 
  24   2.0000     -10.078784      -274.2577 
  25   2.0000     -10.078782      -274.2576 
  26   2.0000     -10.078300      -274.2445 
  27   2.0000     -10.078296      -274.2444 
  28   2.0000     -10.078269      -274.2436 
  29   2.0000     -10.078267      -274.2436 
  30   2.0000      -1.043483       -28.3946 
  31   2.0000      -1.043481       -28.3946 
  32   2.0000      -1.024540       -27.8792 
  33   2.0000      -1.024539       -27.8791 
  34   2.0000      -0.921186       -25.0667 
  35   2.0000      -0.920578       -25.0502 
  36   2.0000      -0.899065       -24.4648 
  37   2.0000      -0.876209       -23.8429 
  38   2.0000      -0.846824       -23.0432 
  39   2.0000      -0.827163       -22.5082 
  40   2.0000      -0.822299       -22.3759 
  41   2.0000      -0.768696       -20.9173 
  42   2.0000      -0.767657       -20.8890 
  43   2.0000      -0.759023       -20.6541 
  44   2.0000      -0.745804       -20.2944 
  45   2.0000      -0.723515       -19.6878 
  46   2.0000      -0.681300       -18.5391 
  47   2.0000      -0.670545       -18.2464 
  48   2.0000      -0.647994       -17.6328 
  49   2.0000      -0.641601       -17.4588 
  50   2.0000      -0.627431       -17.0733 
  51   2.0000      -0.624908       -17.0046 
  52   2.0000      -0.608647       -16.5621 
  53   2.0000      -0.604834       -16.4584 
  54   2.0000      -0.561386       -15.2761 
  55   2.0000      -0.554527       -15.0894 
  56   2.0000      -0.534051       -14.5323 
  57   2.0000      -0.530030       -14.4229 
  58   2.0000      -0.522463       -14.2169 
  59   2.0000      -0.511848       -13.9281 
  60   2.0000      -0.490675       -13.3519 
  61   2.0000      -0.481853       -13.1119 
  62   2.0000      -0.474569       -12.9137 
  63   2.0000      -0.460567       -12.5327 
  64   2.0000      -0.455662       -12.3992 
  65   2.0000      -0.454543       -12.3687 
  66   2.0000      -0.449428       -12.2296 
  67   2.0000      -0.447940       -12.1891 
  68   2.0000      -0.438225       -11.9247 
  69   2.0000      -0.424503       -11.5513 
  70   2.0000      -0.421169       -11.4606 
  71   2.0000      -0.421084       -11.4583 
  72   2.0000      -0.419415       -11.4129 
  73   2.0000      -0.412218       -11.2170 
  74   2.0000      -0.411256       -11.1908 
  75   2.0000      -0.409187       -11.1345 
  76   2.0000      -0.393324       -10.7029 
  77   2.0000      -0.392385       -10.6773 
  78   2.0000      -0.392189       -10.6720 
  79   2.0000      -0.390595       -10.6286 
  80   2.0000      -0.388291       -10.5659 
  81   2.0000      -0.382557       -10.4099 
  82   2.0000      -0.375245       -10.2109 
  83   2.0000      -0.363173        -9.8824 
  84   2.0000      -0.353912        -9.6304 
  85   2.0000      -0.331033        -9.0079 
  86   2.0000      -0.330811        -9.0018 
  87   2.0000      -0.329151        -8.9566 
  88   2.0000      -0.316026        -8.5995 
  89   2.0000      -0.282044        -7.6748 
  90   2.0000      -0.280268        -7.6265 
  91   2.0000      -0.276502        -7.5240 
  92   2.0000      -0.273865        -7.4523 
  93   2.0000      -0.273576        -7.4444 
  94   2.0000      -0.270152        -7.3512 
  95   2.0000      -0.267526        -7.2797 
  96   2.0000      -0.265851        -7.2342 
  97   2.0000      -0.247716        -6.7407 
  98   2.0000      -0.247625        -6.7382 
  99   2.0000      -0.220536        -6.0011 
 100   0.0000      -0.161908        -4.4057 
 101   0.0000      -0.111738        -3.0405 
 102   0.0000      -0.110557        -3.0084 
 103   0.0000      -0.093633        -2.5479 
 104   0.0000      -0.076791        -2.0896 
 105   0.0000      -0.058974        -1.6048 
 106   0.0000      -0.056068        -1.5257 
 107   0.0000      -0.026780        -0.7287 
 108   0.0000      -0.003478        -0.0947 
 109   0.0000       0.005982         0.1628 
 110   0.0000       0.032301         0.8790 
*Only the first 10 virtual orbitals were printed.

                    ********************************
                    * MULLIKEN POPULATION ANALYSIS *
                    ********************************

-----------------------
MULLIKEN ATOMIC CHARGES
-----------------------
   0 C :    0.095825
   1 C :    0.095839
   2 C :    0.248703
   3 C :    0.096756
   4 C :    0.096493
   5 C :    0.248746
   6 C :   -0.172894
   7 C :   -0.274073
   8 C :    0.135241
   9 C :   -0.116787
  10 C :    0.135139
  11 C :   -0.273230
  12 C :   -0.174555
  13 C :   -0.174536
  14 C :   -0.273119
  15 C :    0.135316
  16 C :   -0.117111
  17 C :    0.135456
  18 C :   -0.273943
  19 C :   -0.172938
  20 C :    0.101452
  21 N :   -0.040567
  22 C :    0.101415
  23 C :    0.101652
  24 N :   -0.040677
  25 C :    0.101642
  26 O :   -0.380565
  27 O :   -0.380539
  28 O :   -0.380525
  29 O :   -0.380521
  30 H :    0.272931
  31 H :    0.272944
  32 H :    0.130522
  33 H :    0.182265
  34 H :    0.182264
  35 H :    0.130458
  36 H :    0.130459
  37 H :    0.182271
  38 H :    0.182268
  39 H :    0.130523
Sum of atomic charges:   -0.0000000

--------------------------------
MULLIKEN REDUCED ORBITAL CHARGES
--------------------------------
  0 C s       :     3.180736  s :     3.180736
      pz      :     0.901349  p :     2.675023
      px      :     0.869218
      py      :     0.904457
      dz2     :     0.003649  d :     0.048416
      dxz     :     0.007113
      dyz     :     0.007419
      dx2y2   :     0.015136
      dxy     :     0.015099

  1 C s       :     3.180741  s :     3.180741
      pz      :     0.902209  p :     2.675006
      px      :     0.869134
      py      :     0.903663
      dz2     :     0.003661  d :     0.048415
      dxz     :     0.007139
      dyz     :     0.007433
      dx2y2   :     0.015109
      dxy     :     0.015072

  2 C s       :     3.034822  s :     3.034822
      pz      :     0.915157  p :     2.669318
      px      :     0.837614
      py      :     0.916547
      dz2     :     0.003842  d :     0.047157
      dxz     :     0.006714
      dyz     :     0.007492
      dx2y2   :     0.015101
      dxy     :     0.014007

  3 C s       :     3.181437  s :     3.181437
      pz      :     0.900686  p :     2.673395
      px      :     0.868600
      py      :     0.904110
      dz2     :     0.003648  d :     0.048411
      dxz     :     0.007084
      dyz     :     0.007432
      dx2y2   :     0.015162
      dxy     :     0.015085

  4 C s       :     3.181674  s :     3.181674
      pz      :     0.901558  p :     2.673422
      px      :     0.868519
      py      :     0.903345
      dz2     :     0.003659  d :     0.048410
      dxz     :     0.007108
      dyz     :     0.007445
      dx2y2   :     0.015137
      dxy     :     0.015060

  5 C s       :     3.034831  s :     3.034831
      pz      :     0.915087  p :     2.669266
      px      :     0.837684
      py      :     0.916495
      dz2     :     0.003842  d :     0.047157
      dxz     :     0.006714
      dyz     :     0.007491
      dx2y2   :     0.015102
      dxy     :     0.014008

  6 C s       :     3.237692  s :     3.237692
      pz      :     0.970640  p :     2.897248
      px      :     0.936658
      py      :     0.989950
      dz2     :     0.003167  d :     0.037954
      dxz     :     0.005433
      dyz     :     0.003032
      dx2y2   :     0.012764
      dxy     :     0.013558

  7 C s       :     3.310796  s :     3.310796
      pz      :     0.909247  p :     2.924109
      px      :     0.977270
      py      :     1.037592
      dz2     :     0.003175  d :     0.039167
      dxz     :     0.005915
      dyz     :     0.003609
      dx2y2   :     0.012369
      dxy     :     0.014098

  8 C s       :     3.191342  s :     3.191342
      pz      :     1.005170  p :     2.626454
      px      :     0.806141
      py      :     0.815143
      dz2     :     0.003762  d :     0.046963
      dxz     :     0.004204
      dyz     :     0.006724
      dx2y2   :     0.017677
      dxy     :     0.014596

  9 C s       :     3.398114  s :     3.398114
      pz      :     0.919526  p :     2.668959
      px      :     0.911350
      py      :     0.838083
      dz2     :     0.003680  d :     0.049713
      dxz     :     0.006681
      dyz     :     0.007165
      dx2y2   :     0.015474
      dxy     :     0.016713

 10 C s       :     3.191408  s :     3.191408
      pz      :     1.002792  p :     2.626490
      px      :     0.806629
      py      :     0.817069
      dz2     :     0.003760  d :     0.046963
      dxz     :     0.004215
      dyz     :     0.006732
      dx2y2   :     0.017673
      dxy     :     0.014582

 11 C s       :     3.309802  s :     3.309802
      pz      :     0.910372  p :     2.924263
      px      :     0.977087
      py      :     1.036804
      dz2     :     0.003168  d :     0.039165
      dxz     :     0.005912
      dyz     :     0.003610
      dx2y2   :     0.012370
      dxy     :     0.014105

 12 C s       :     3.238664  s :     3.238664
      pz      :     0.968635  p :     2.897938
      px      :     0.938383
      py      :     0.990921
      dz2     :     0.003182  d :     0.037953
      dxz     :     0.005458
      dyz     :     0.003046
      dx2y2   :     0.012743
      dxy     :     0.013524

 13 C s       :     3.238613  s :     3.238613
      pz      :     0.969826  p :     2.897970
      px      :     0.938234
      py      :     0.989910
      dz2     :     0.003171  d :     0.037953
      dxz     :     0.005442
      dyz     :     0.003037
      dx2y2   :     0.012762
      dxy     :     0.013540

 14 C s       :     3.309754  s :     3.309754
      pz      :     0.909708  p :     2.924200
      px      :     0.977124
      py      :     1.037367
      dz2     :     0.003173  d :     0.039165
      dxz     :     0.005912
      dyz     :     0.003611
      dx2y2   :     0.012370
      dxy     :     0.014100

 15 C s       :     3.191353  s :     3.191353
      pz      :     1.004577  p :     2.626368
      px      :     0.806313
      py      :     0.815478
      dz2     :     0.003761  d :     0.046963
      dxz     :     0.004206
      dyz     :     0.006727
      dx2y2   :     0.017675
      dxy     :     0.014594

 16 C s       :     3.398571  s :     3.398571
      pz      :     0.919381  p :     2.668827
      px      :     0.911223
      py      :     0.838223
      dz2     :     0.003680  d :     0.049713
      dxz     :     0.006680
      dyz     :     0.007165
      dx2y2   :     0.015474
      dxy     :     0.016714

 17 C s       :     3.191288  s :     3.191288
      pz      :     1.003377  p :     2.626293
      px      :     0.806340
      py      :     0.816576
      dz2     :     0.003760  d :     0.046963
      dxz     :     0.004211
      dyz     :     0.006729
      dx2y2   :     0.017677
      dxy     :     0.014586

 18 C s       :     3.310725  s :     3.310725
      pz      :     0.909946  p :     2.924052
      px      :     0.977201
      py      :     1.036904
      dz2     :     0.003170  d :     0.039166
      dxz     :     0.005913
      dyz     :     0.003607
      dx2y2   :     0.012371
      dxy     :     0.014105

 19 C s       :     3.237700  s :     3.237700
      pz      :     0.969442  p :     2.897283
      px      :     0.936843
      py      :     0.990998
      dz2     :     0.003177  d :     0.037955
      dxz     :     0.005448
      dyz     :     0.003040
      dx2y2   :     0.012747
      dxy     :     0.013543

 20 C s       :     3.166199  s :     3.166199
      pz      :     0.792771  p :     2.619580
      px      :     0.964565
      py      :     0.862243
      dz2     :     0.005303  d :     0.112769
      dxz     :     0.010017
      dyz     :     0.021846
      dx2y2   :     0.045074
      dxy     :     0.030529

 21 N s       :     3.318579  s :     3.318579
      pz      :     1.596813  p :     3.631871
      px      :     1.146342
      py      :     0.888716
      dz2     :     0.007662  d :     0.090117
      dxz     :     0.008595
      dyz     :     0.010566
      dx2y2   :     0.026282
      dxy     :     0.037011

 22 C s       :     3.166286  s :     3.166286
      pz      :     0.792807  p :     2.619529
      px      :     0.964726
      py      :     0.861996
      dz2     :     0.005304  d :     0.112769
      dxz     :     0.009998
      dyz     :     0.021863
      dx2y2   :     0.044998
      dxy     :     0.030606

 23 C s       :     3.166119  s :     3.166119
      pz      :     0.792690  p :     2.619461
      px      :     0.964565
[...]
      dxz     :     0.016344
      dyz     :     0.040977
      dx2y2   :     0.099066
      dxy     :     0.069931

 26 O s       :     3.550719  s :     3.550719
      pz      :     1.421723  p :     4.648815
      px      :     1.684257
      py      :     1.542835
      dz2     :     0.027865  d :     0.221074
      dxz     :     0.019138
      dyz     :     0.036432
      dx2y2   :     0.069163
      dxy     :     0.068476

 27 O s       :     3.550719  s :     3.550719
      pz      :     1.421723  p :     4.648817
      px      :     1.684655
      py      :     1.542439
      dz2     :     0.027864  d :     0.221073
      dxz     :     0.019084
      dyz     :     0.036486
      dx2y2   :     0.069129
      dxy     :     0.068511

 28 O s       :     3.550719  s :     3.550719
      pz      :     1.421730  p :     4.648816
      px      :     1.684254
      py      :     1.542833
      dz2     :     0.027865  d :     0.221073
      dxz     :     0.019142
      dyz     :     0.036434
      dx2y2   :     0.069160
      dxy     :     0.068473

 29 O s       :     3.550718  s :     3.550718
      pz      :     1.421729  p :     4.648815
      px      :     1.684657
      py      :     1.542429
      dz2     :     0.027864  d :     0.221075
      dxz     :     0.019087
      dyz     :     0.036490
      dx2y2   :     0.069125
      dxy     :     0.068508

 30 H s       :     0.621268  s :     0.621268
      pz      :     0.020599  p :     0.083604
      px      :     0.053954
      py      :     0.009051

 31 H s       :     0.621268  s :     0.621268
      pz      :     0.020599  p :     0.083604
      px      :     0.053954
      py      :     0.009050

 32 H s       :     0.779461  s :     0.779461
      pz      :     0.008875  p :     0.045601
      px      :     0.012230
      py      :     0.024496

 33 H s       :     0.756692  s :     0.756692
      pz      :     0.007594  p :     0.045938
      px      :     0.014610
      py      :     0.023734

 34 H s       :     0.756694  s :     0.756694
      pz      :     0.007594  p :     0.045937
      px      :     0.014574
      py      :     0.023769

 35 H s       :     0.779465  s :     0.779465
      pz      :     0.008877  p :     0.045601
      px      :     0.012259
      py      :     0.024465

 36 H s       :     0.779465  s :     0.779465
      pz      :     0.008874  p :     0.045601
      px      :     0.012230
      py      :     0.024497

 37 H s       :     0.756693  s :     0.756693
      pz      :     0.007595  p :     0.045937
      px      :     0.014610
      py      :     0.023733

 38 H s       :     0.756693  s :     0.756693
      pz      :     0.007596  p :     0.045938
      px      :     0.014574
      py      :     0.023768

 39 H s       :     0.779461  s :     0.779461
      pz      :     0.008879  p :     0.045601
      px      :     0.012259
      py      :     0.024463



                      *****************************
                      * MAYER POPULATION ANALYSIS *
                      *****************************

  NA   - Mulliken gross atomic population
  ZA   - Total nuclear charge
  QA   - Mulliken gross atomic charge
  VA   - Mayer's total valence
  BVA  - Mayer's bonded valence
  FA   - Mayer's free valence

  ATOM       NA         ZA         QA         VA         BVA        FA
  0 C      5.8428     6.0000     0.1572     3.1305     3.1305    -0.0000
  1 C      5.8429     6.0000     0.1571     3.1306     3.1306    -0.0000
  2 C      5.9687     6.0000     0.0313     3.0610     3.0610     0.0000
  3 C      5.8415     6.0000     0.1585     3.1285     3.1285     0.0000
  4 C      5.8414     6.0000     0.1586     3.1285     3.1285     0.0000
  5 C      5.9688     6.0000     0.0312     3.0610     3.0610     0.0000
  6 C      6.2336     6.0000    -0.2336     3.4935     3.4935     0.0000
  7 C      6.2880     6.0000    -0.2880     3.7166     3.7166    -0.0000
  8 C      5.9244     6.0000     0.0756     3.2492     3.2492    -0.0000
  9 C      5.7248     6.0000     0.2752     3.0121     3.0121    -0.0000
 10 C      5.9246     6.0000     0.0754     3.2494     3.2494     0.0000
 11 C      6.2877     6.0000    -0.2877     3.7173     3.7173     0.0000
 12 C      6.2341     6.0000    -0.2341     3.4931     3.4931     0.0000
 13 C      6.2341     6.0000    -0.2341     3.4930     3.4930    -0.0000
 14 C      6.2877     6.0000    -0.2877     3.7173     3.7173    -0.0000
 15 C      5.9246     6.0000     0.0754     3.2494     3.2494    -0.0000
 16 C      5.7249     6.0000     0.2751     3.0119     3.0119     0.0000
 17 C      5.9244     6.0000     0.0756     3.2492     3.2492    -0.0000
 18 C      6.2880     6.0000    -0.2880     3.7166     3.7166    -0.0000
 19 C      6.2336     6.0000    -0.2336     3.4934     3.4934    -0.0000
 20 C      5.9192     6.0000     0.0808     4.0830     4.0830    -0.0000
 21 N      7.0327     7.0000    -0.0327     3.0251     3.0251    -0.0000
 22 C      5.9192     6.0000     0.0808     4.0831     4.0831    -0.0000
 23 C      5.9192     6.0000     0.0808     4.0831     4.0831    -0.0000
 24 N      7.0327     7.0000    -0.0327     3.0251     3.0251    -0.0000
 25 C      5.9192     6.0000     0.0808     4.0830     4.0830    -0.0000
 26 O      8.3745     8.0000    -0.3745     2.0985     2.0985    -0.0000
 27 O      8.3745     8.0000    -0.3745     2.0985     2.0985    -0.0000
 28 O      8.3745     8.0000    -0.3745     2.0985     2.0985    -0.0000
 29 O      8.3745     8.0000    -0.3745     2.0985     2.0985    -0.0000
 30 H      0.7282     1.0000     0.2718     0.9236     0.9236    -0.0000
 31 H      0.7282     1.0000     0.2718     0.9236     0.9236     0.0000
 32 H      0.8730     1.0000     0.1270     0.9755     0.9755     0.0000
 33 H      0.8177     1.0000     0.1823     0.9575     0.9575     0.0000
 34 H      0.8177     1.0000     0.1823     0.9576     0.9576     0.0000
 35 H      0.8730     1.0000     0.1270     0.9756     0.9756     0.0000
 36 H      0.8730     1.0000     0.1270     0.9756     0.9756    -0.0000
 37 H      0.8177     1.0000     0.1823     0.9576     0.9576    -0.0000
 38 H      0.8177     1.0000     0.1823     0.9575     0.9575    -0.0000
 39 H      0.8730     1.0000     0.1270     0.9755     0.9755    -0.0000

  Mayer bond orders larger than 0.100000
B(  0-C ,  1-C ) :   0.9404 B(  0-C ,  2-C ) :  -0.1012 B(  0-C ,  4-C ) :  -0.1766 
B(  0-C ,  5-C ) :   1.1939 B(  0-C , 19-C ) :   1.3230 B(  1-C ,  2-C ) :   1.1939 
B(  1-C ,  3-C ) :  -0.1766 B(  1-C ,  5-C ) :  -0.1012 B(  1-C ,  6-C ) :   1.3230 
B(  2-C ,  3-C ) :   1.1934 B(  2-C ,  4-C ) :  -0.1017 B(  2-C ,  8-C ) :  -0.1247 
B(  2-C ,  9-C ) :   1.0466 B(  2-C , 10-C ) :  -0.1248 B(  3-C ,  4-C ) :   0.9404 
B(  3-C ,  5-C ) :  -0.1017 B(  3-C , 12-C ) :   1.3215 B(  4-C ,  5-C ) :   1.1935 
B(  4-C , 13-C ) :   1.3215 B(  5-C , 15-C ) :  -0.1248 B(  5-C , 16-C ) :   1.0464 
B(  5-C , 17-C ) :  -0.1247 B(  6-C ,  7-C ) :   1.1970 B(  6-C , 32-H ) :   0.9640 
B(  7-C ,  8-C ) :   1.3839 B(  7-C , 33-H ) :   0.9709 B(  8-C ,  9-C ) :   1.1373 
B(  8-C , 10-C ) :  -0.1390 B(  8-C , 23-C ) :   0.9799 B(  8-C , 26-O ) :  -0.1433 
B(  9-C , 10-C ) :   1.1368 B( 10-C , 11-C ) :   1.3843 B( 10-C , 25-C ) :   0.9799 
B( 10-C , 27-O ) :  -0.1433 B( 11-C , 12-C ) :   1.1977 B( 11-C , 34-H ) :   0.9707 
B( 12-C , 35-H ) :   0.9644 B( 13-C , 14-C ) :   1.1977 B( 13-C , 36-H ) :   0.9644 
B( 14-C , 15-C ) :   1.3843 B( 14-C , 37-H ) :   0.9707 B( 15-C , 16-C ) :   1.1367 
B( 15-C , 17-C ) :  -0.1390 B( 15-C , 20-C ) :   0.9799 B( 15-C , 28-O ) :  -0.1433 
B( 16-C , 17-C ) :   1.1373 B( 17-C , 18-C ) :   1.3838 B( 17-C , 22-C ) :   0.9799 
B( 17-C , 29-O ) :  -0.1433 B( 18-C , 19-C ) :   1.1969 B( 18-C , 38-H ) :   0.9709 
B( 19-C , 39-H ) :   0.9640 B( 20-C , 21-N ) :   1.0673 B( 20-C , 28-O ) :   2.0481 
B( 21-N , 22-C ) :   1.0674 B( 21-N , 30-H ) :   0.8996 B( 22-C , 29-O ) :   2.0481 
B( 23-C , 24-N ) :   1.0674 B( 23-C , 26-O ) :   2.0481 B( 24-N , 25-C ) :   1.0673 
B( 24-N , 31-H ) :   0.8996 B( 25-C , 27-O ) :   2.0480 

-------
TIMINGS
-------

Total SCF time: 0 days 0 hours 0 min 12 sec 

Total time                  ....      12.996 sec
Sum of individual times     ....      11.832 sec  ( 91.0%)

SCF preparation             ....       0.391 sec  (  3.0%)
Fock matrix formation       ....      10.422 sec  ( 80.2%)
  Startup                   ....       0.011 sec  (  0.1% of F)
  Split-RI-J                ....       2.276 sec  ( 21.8% of F)
  XC integration            ....       9.152 sec  ( 87.8% of F)
    Basis function eval.    ....       1.426 sec  ( 15.6% of XC)
    Density eval.           ....       2.352 sec  ( 25.7% of XC)
    XC-Functional eval.     ....       0.242 sec  (  2.6% of XC)
    XC-Potential eval.      ....       4.676 sec  ( 51.1% of XC)
Diagonalization             ....       0.000 sec  (  0.0%)
Density matrix formation    ....       0.044 sec  (  0.3%)
Total Energy calculation    ....       0.022 sec  (  0.2%)
Population analysis         ....       0.645 sec  (  5.0%)
Orbital Transformation      ....       0.042 sec  (  0.3%)
Orbital Orthonormalization  ....       0.000 sec  (  0.0%)
DIIS solution               ....       0.056 sec  (  0.4%)
SOSCF solution              ....       0.209 sec  (  1.6%)
Finished LeanSCF after  13.8 sec

Maximum memory used throughout the entire LEANSCF-calculation: 57.2 MB


-------------------------------------------------------------------------------
                          DFT DISPERSION CORRECTION                            
                                                                               
                                DFTD4 V3.4.0                                   
-------------------------------------------------------------------------------
The R2SCAN3C composite method is recognized
Using three-body term ABC
Active option DFTDOPT                   ...         5   

-------------------------   ----------------
Dispersion correction           -0.024976302
-------------------------   ----------------

------------------   -----------------
gCP correction             0.017666230
------------------   -----------------

-------------------------   --------------------
FINAL SINGLE POINT ENERGY     -1330.911176653871
-------------------------   --------------------

                                *** OPTIMIZATION RUN DONE ***



           ************************************************************
           *        Program running with 4 parallel MPI-processes     *
           *              working on a common directory               *
           ************************************************************

------------------------------------------------------------------------------
                              ORCA PROPERTY CALCULATIONS
------------------------------------------------------------------------------

GBWName                                 ... pdi_opt.gbw
Number of atoms                         ...     40
Number of basis functions               ...    650
Max core memory                         ...   8000 MB

Electric properties:
Dipole moment                           ... YES
Quadrupole moment                       ...  NO
Static polarizability (Dipole/Dipole)   ...  NO
Static polarizability (Dipole/Quad.)    ...  NO
Static polarizability (Quad./Quad.)     ...  NO
Static polarizability (Velocity)        ...  NO
Static hyperpolarizability              ...  NO

Atomic electric properties:
Dipole moment                           ...  NO
Quadrupole moment                       ...  NO
Static polarizability                   ...  NO

Choice of electric origin               ... Center of mass
Position of electric origin             ...    -0.004689    -0.001575    -0.010832

General magnetic properties:
Magnetizability                         ...  NO

EPR properties:
g-Tensor (aka g-matrix)                 ...  NO
Zero-Field splitting spin-orbit         ...  NO
Zero-field splitting spin-spin          ...  NO
Hyperfine couplings                     ...  NO (   0 nuclei)
Quadrupole couplings                    ...  NO (   0 nuclei)
Contact density                         ...  NO (   0 nuclei)

NMR properties:
Chemical shifts                         ...  NO (   0 nuclei)
Spin-rotation constants                 ...  NO (   0 nuclei)
Spin-spin couplings                     ...  NO (   0 nuclei,    0 pairs)

Choice of magnetic origin               ... GIAO
Position of magnetic origin             ...     0.000000     0.000000     0.000000

Properties with geometric perturbations:
SCF Hessian                             ...  NO
IR spectrum                             ...  NO
VCD spectrum                            ...  NO
X-ray spectroscopy properties:
SCF XES/XAS/RIXS spectra                ...  NO

SCF SOC stabilization energy            ...  NO
Diagonal Born-Oppenheimer correction    ...  NO

-------------
DIPOLE MOMENT
-------------

Method             : SCF
Type of density    : Electron Density
Multiplicity       :   1
Irrep              :   0
Energy             : -1330.9038665817674882 Eh
Basis              : AO
                                X                 Y                 Z
Electronic contribution:     -0.000004079       0.000082404      -0.000014332
Nuclear contribution   :      0.000004311      -0.000133458       0.000016819
                        -----------------------------------------
Total Dipole Moment    :      0.000000231      -0.000051055       0.000002487
                        -----------------------------------------
Magnitude (a.u.)       :      0.000051116
Magnitude (Debye)      :      0.000129926



--------------------
Rotational spectrum 
--------------------
 
Rotational constants in cm-1:             0.013964             0.002953             0.002437 
Rotational constants in MHz :           418.616829            88.522233            73.070675 

Dipole components along the rotational axes: 
x,y,z [a.u.] :     0.000000    -0.000051     0.000003 
x,y,z [Debye]:     0.000001    -0.000130     0.000007 

 

Dipole moment calculation done in   0.2 sec 

Maximum memory used throughout the entire PROP-calculation: 48.8 MB

--------------------------------
SUGGESTED CITATIONS FOR THIS RUN
--------------------------------

Below you find a list of papers that are relevant to this ORCA run
We neither can nor want to force you to cite these papers, but we appreciate if you do
You receive ORCA, which is the product of decades of hard work by many enthusiastic individuals, for free
The only thing we kindly ask in return is that you cite our papers,
We deeply appreciate it, if you show your appreciation for ORCA by not just citing the generic ORCA reference.

Please note that relegating all ORCA citations to the supporting information does *not* help us.
SI sections are not indexed - citations you put there will not count into any citation statistics
But we need these citations in order to attract the funding resources that allow us to do what we are doing

Therefore, if you are a happy ORCA user, please consider citing a few of the papers listed below in the main body of your paper

In addition to the list printed below, the program has created the file pdi_opt.bibtex that contains the list in bibtex format
You can import this file easily into all common literature databanks and citation aid programs

It goes without saying that in many instances, there are alternative algorithms to achieve similar
results as the ones you have gotten from ORCA. It is, of course, also the case that in some instances
ORCA just re-implements algorithms worked out by others. We are fully aware of that and we are also
fully appreciative of our colleagues work. Hence this citation list should not be read as indicating
that the listed papers, which are focused on our own work, are the only ones worth citing. It simply
meant to make it easier for users to cite ORCA specific papers. It is not a substitute for doing your
own literature research and citing the relevant literature in a scientifically appropriate manner.

List of essential papers. We consider these as the minimum necessary citations

  1. Grimme, S.; Hansen, A.; Ehlert, S.; Mewes, J.
     r2SCAN-3c: A 'Swiss army knife' composite electronic-structure method
     J. Chem. Phys. 2021 154 , 064103
     doi.org/10.1063/5.0040021
  2. Neese, F.
     Software update: the ORCA program system, version 6.0
     WIRES Comput. Molec. Sci. 2025 15(1), e70019
     doi.org/10.1002/wcms.70019

List of papers to cite with high priority. The work reported in these papers was absolutely
necessary for this run to complete.
Our perspective: the developers of density functionals and basis sets usually get cited in chemistry papers
Good! But without the algorithms to do something with them, the functionals or basis sets would not do anything.
Hence, in our opinion, the algorithm design and method developments papers are equally worthy of getting cited

  1. Neese, F.
     An improvement of the resolution of the identity approximation for the formation of the Coulomb matrix
     J. Comp. Chem. 2003 24(14), 1740-1747
     doi.org/10.1002/jcc.10318
  2. Bykov, D.; Petrenko, T.; Izsak, R.; Kossmann, S.; Becker, U.; Valeev, E.; Neese, F.
     Efficient implementation of the analytic second derivatives of Hartree-Fock and hybrid DFT energies: a detailed analysis of different approximations
     Molec. Phys. 2015 113 , 1961-1977
     doi.org/10.1080/00268976.2015.1025114
  3. Caldeweyher, E.; Bannwarth, C.; Grimme, S.
     Extension of the D3 dispersion coefficient model
     J. Chem. Phys. 2017 147 , 034112
     doi.org/10.1063/1.4993215
  4. Lehtola, S.; Steigemann, C.; Oliveira, M.; Marques, M.
     Recent developments in Libxc - A comprehensive library of functionals for density functional theory
     Software X 2018 7 , 
     doi.org/10.1016/j.softx.2017.11.002
  5. Caldeweyher, E.; Ehlert, S.; Hansen, A.; Neugebauer, H.; Spicher, S.; Bannwarth, C.; Grimme, S.
     A generally applicable atomic-charge dependent London dispersion correction
     J. Chem. Phys. 2019 150 , 154122
     doi.org/10.1063/1.5090222
  6. Neese, F.
     The SHARK Integral Generation and Digestion System
     J. Comp. Chem. 2022 44(3), 381
     doi.org/10.1002/jcc.26942

List of suggested additional citations. These are papers that are important in the 'surrounding' of 
of this run, or papers that preceded the highly important papers. If you like your results we are grateful for a citation.

  1. Neese, F.
     The ORCA program system
     WIRES Comput. Molec. Sci. 2012 2(1), 73-78
     doi.org/10.1002/wcms.81
  2. Neese, F.
     Software update: the ORCA program system, version 4.0
     WIRES Comput. Molec. Sci. 2018 8(1), 1-6
     doi.org/10.1002/wcms.1327
  3. Neese, F.; Wennmohs, F.; Becker, U.; Riplinger, C.
     The ORCA quantum chemistry program package
     J. Chem. Phys. 2020 152(22), 224108
     doi.org/10.1063/5.0004608
  4. Neese, F.
     Software update: The ORCA program system—Version 5.0
     WIRES Comput. Molec. Sci. 2022 12(1), e1606
     doi.org/10.1002/wcms.1606

List of optional additional citations

  1. Neese, F.
     Approximate second-order SCF convergence for spin unrestricted wavefunctions
     Chem. Phys. Lett. 2000 325(1-3), 93-98
     doi.org/10.1016/s0009-2614(00)00662-x

Timings for individual modules:

Sum of individual times          ...      722.629 sec (=  12.044 min)
Startup calculation              ...       33.266 sec (=   0.554 min)   4.6 %
SCF iterations                   ...      491.046 sec (=   8.184 min)  68.0 %
Property calculations            ...        0.603 sec (=   0.010 min)   0.1 %
SCF Gradient evaluation          ...      195.222 sec (=   3.254 min)  27.0 %
Geometry relaxation              ...        2.492 sec (=   0.042 min)   0.3 %
                             ****ORCA TERMINATED NORMALLY****
TOTAL RUN TIME: 0 days 1 hours 38 minutes 42 seconds 601 msec
