
                                 *****************
                                 * O   R   C   A *
                                 *****************

                                            #,                                       
                                            ###                                      
                                            ####                                     
                                            #####                                    
                                            ######                                   
                                           ########,                                 
                                     ,,################,,,,,                         
                               ,,#################################,,                 
                          ,,##########################################,,             
                       ,#########################################, ''#####,          
                    ,#############################################,,   '####,        
                  ,##################################################,,,,####,       
                ,###########''''           ''''###############################       
              ,#####''   ,,,,##########,,,,          '''####'''          '####       
            ,##' ,,,,###########################,,,                        '##       
           ' ,,###''''                  '''############,,,                           
         ,,##''                                '''############,,,,        ,,,,,,###''
      ,#''                                            '''#######################'''  
     '                                                          ''''####''''         
             ,#######,   #######,   ,#######,      ##                                
            ,#'     '#,  ##    ##  ,#'     '#,    #''#        ,####,    ,#,          
            ##       ##  ##   ,#'  ##            #'  '#       #'       ,# #          
            ##       ##  #######   ##           ,######,      #####,      #          
            '#,     ,#'  ##    ##  '#,     ,#' ,#      #,     #,   #      #          
             '#######'   ##     ##  '#######'  #'      '#     '####' #    #          



                #########################################################
                #                        -***-                          #
                #          Department of theory and spectroscopy        #
                #                                                       #
                #                      Frank Neese                      #
                #                                                       #
                #     Directorship, Architecture, Infrastructure        #
                #                    SHARK, DRIVERS                     #
                #        Core code/Algorithms in most modules           #
                #                                                       #
                #        Max Planck Institute fuer Kohlenforschung      #
                #                Kaiser Wilhelm Platz 1                 #
                #                 D-45470 Muelheim/Ruhr                 #
                #                      Germany                          #
                #                                                       #
                #                  All rights reserved                  #
                #                        -***-                          #
                #########################################################


                         Program Version 6.1.1  -  RELEASE   -
                                (GIT: $487d211cc3$)
                          ($2025-11-21 10:33:24 +0100$)


 With contributions from (in alphabetic order):
[Max-Planck-Institut fuer Kohlenforschung]                               
  Daniel Aravena         : Magnetic Suceptibility                        
  Michael Atanasov       : Ab Initio Ligand Field Theory (pilot matlab implementation)
  Alexander A. Auer      : GIAO ZORA, VPT2 properties, NMR spectrum      
  Ute Becker             : All parallelization in ORCA, NUMFREQ, NUMCALC 
  Giovanni Bistoni       : ED, misc. LED, open-shell LED, HFLD           
  Dmytro Bykov           : pre 5.0 version of the SCF Hessian            
  Marcos Casanova-Páez   : Triplet and SCS-CIS(D). UHF-(DLPNO)-IP/EA/STEOM-CCSD. UHF-CVS-IP/STEOM-CCSD   
  Vijay G. Chilkuri      : MRCI spin determinant printing, contributions to CSF-ICE 
  Pauline Colinet        : FMM embedding                                 
  Dipayan Datta          : RHF DLPNO-CCSD density                        
  Achintya Kumar Dutta   : EOM-CC, STEOM-CC                              
  Nicolas Foglia         : Exact transition moments, OPA infrastructure, MCD improvements    
  Dmitry Ganyushin       : Spin-Orbit,Spin-Spin,Magnetic field MRCI      
  Miquel Garcia-Rates    : C-PCM and meta-GGA Hessian, CCSD/C-PCM, Gaussian charge scheme 
  Tiago L. C. Gouveia    : GS-ROHF, GS-ROCIS                             
  Yang Guo               : DLPNO-NEVPT2, F12-NEVPT2, CIM, IAO-localization        
  Andreas Hansen         : Spin unrestricted coupled pair/coupled cluster methods 
  Ingolf Harden          : AUTO-CI MPn and infrastructure                
  Benjamin Helmich-Paris : MC-RPA, TRAH-(SCF,CASSCF), AVAS, COSX integrals, SCF dyn. polar., MC-PDFT, srDFT 
  Lee Huntington         : MR-EOM, pCC                                   
  Robert Izsak           : Overlap fitted RIJCOSX, COSX-SCS-MP3, EOM     
  Riya Kayal             : Wick's Theorem for AUTO-CI, AUTO-CI UHF-CCSDT 
  Emily Kempfer          : AUTO-CI RHF CISDT and CCSDT, approximate NEVPT4
  Christian Kollmar      : KDIIS, OOCD, Brueckner-CCSD(T), CCSD density, CASPT2, CASPT2-K, improved NEVPT2 
  Axel Koslowski         : Symmetry handling                             
  Simone Kossmann        : meta-GGA functionals, TD-DFT gradient, OOMP2, (MP2 Hessian; deprecated post 5.0) 
  Lucas Lang             : DCDCAS, Hyperfine gauge corrections, ICE-SOC+SSC
  Marvin Lechner         : AUTO-CI (C++ implementation), FIC-MRCC        
  Spencer Leger          : CASSCF response                               
  Dagmar Lenk            : GEPOL surface, SMD, ORCA-2-JSON               
  Dimitrios Liakos       : Extrapolation schemes; Compound Job, Property file
  Dimitrios Manganas     : Further ROCIS development; embedding schemes. LFT, Crystal Embedding 
  Dimitrios Pantazis     : SARC Basis sets                               
  Anastasios Papadopoulos: AUTO-CI, single reference methods and gradients 
  Taras Petrenko         : pre 6.0 DFT Hessian and TD-DFT gradient,  ECA, NRVS 
  Petra Pikulova         : Analytic Raman intensities                    
  Peter Pinski           : DLPNO-MP2, DLPNO-MP2 Gradient                 
  Shashank Vittal Rao    : ES-AILFT, MagRelax                            
  Christoph Reimann      : Effective Core Potentials                     
  Marius Retegan         : Local ZFS, SOC                                
  Christoph Riplinger    : Optimizer, TS searches, QM/MM, DLPNO-CCSD(T), (RO)-DLPNO pert. Triples 
  Michael Roemelt        : Original ROCIS implementation, recursive CI coupling coefficients
  Masaaki Saitow         : Open-shell DLPNO-CCSD energy and density      
  Barbara Sandhoefer     : DKH picture change effects                    
  Yorick L. A. Schmerwitz: GMF and freeze-and-release deltaSCF, NEB S-IDPP initial path                    
  Kantharuban Sivalingam : CASSCF convergence/infrastructure, NEVPT2, NEVPT3, NEVPT4(SD), FIC-MRCI and CEPA variants
  Bernardo de Souza      : ESD, SOC TD-DFT                               
  Georgi L. Stoychev     : AutoAux, RI-MP2 NMR, DLPNO-MP2 response, X2C  
  Van Anh Tran           : RI-MP2 g-tensors                              
  Willem Van den Heuvel  : Paramagnetic NMR                              
  Zikuan Wang            : NOTCH, Electric field optimization            
  Frank Wennmohs         : Technical directorship and infrastructure     
  Hang Xu                : AUTO-CI-Response properties                   
                                                                         
[FACCTs GmbH]                                                            
  Markus Bursch, Nicolas Foglia, Miquel Garcia-Rates, Ingolf Harden, Hagen Neugebauer, Anastasios Papadopoulos, 
  Christoph Riplinger, Bernardo de Souza, Georgi L. Stoychev                                                    
                                                                 
  APM, various basis sets, CI-OPT, improved COSX, DLPNO-Multilevel,           
  DOCKER, DRACO, updates on ESD, Fragmentator, GOAT, IRC, LR-CPCM, L-BFGS, MBIS, meta-GGA TD-DFT gradient, ML-optimized integration grids, 
  MM, NACMEs, nearIR, NEB, NEB-TS, NL-DFT gradient (VV10), 2- and 3-layer-ONIOM, interface openCOSMO-RS, QMMM,   
  Crystal-QMMM, RESP, rigid body optimization, SF, symmetry and pop. for TD-DFT, various functionals, SOLVATOR                                   
                                                                         
[Other institutions]                                                     
  V. Asgeirsson          : NEB                                           
  Christoph Bannwarth    : sTDA-DFT, sTD-DFT, PBEh-3c, B97-3c, D3        
  Giovanni Bistoni       : ETS/NOCV, ADLD/ADEX, COVALED                  
  Martin Brehm           : Molecular dynamics                            
  Ronald Cardenas        : ETS/NOCV                                      
  Martina Colucci        : COVALED                                       
  Sebastian Ehlert       : rSCAN, r2SCAN, r2SCAN-3c, D4, dhf basis sets  
  Marvin Friede          : D4 for Fr, Ra, Ac-Lr                          
  Lars Goerigk           : TD-DFT with DH, B97 family of functionals     
  Stefan Grimme          : VdW corrections, initial TS optimization, DFT functionals, gCP, sTDA/sTD-DF 
  Waldemar Hujo          : DFT-NL                                        
  H. Jonsson             : NEB                                           
  Holger Kruse           : gCP                                           
  Marcel Mueller         : wB97X-3c, vDZP basis set                      
  Hagen Neugebauer       : wr2SCAN, Native XTB                           
  Gianluca Regni         : ADLD/ADEX                                     
  Tobias Risthaus        : pre 6.0 range-separated hybrid DFT and stability analysis
  Lukas Wittmann         : regularized MP2, r2SCAN double-hybrids, wr2SCAN        
                                                                         
We gratefully acknowledge several colleagues who have allowed us to      
interface, adapt or use parts of their codes:                            
  Ed Valeev, F. Pavosevic, A. Kumar             : LibInt (2-el integral package), F12 methods 
  Garnet Chan, S. Sharma, J. Yang, R. Olivares  : DMRG                   
  Ulf Ekstrom                                   : XCFun DFT Library      
  Mihaly Kallay                                 : mrcc  (arbitrary order and MRCC methods)
  Frank Weinhold                                : gennbo (NPA and NBO analysis)           
  Simon Mueller                                 : openCOSMO-RS                            
  Christopher J. Cramer and Donald G. Truhlar   : smd solvation model                     
  S Lehtola, MJT Oliveira, MAL Marques          : LibXC Library                           
  Liviu Ungur et al                             : ANISO software                          


 Your calculation uses the libint2 library for the computation of 2-el integrals
 For citations please refer to: http://libint.valeyev.net

 Your ORCA version has been built with support for libXC version: 7.0.0
 For citations please refer to: https://libxc.gitlab.io

 This ORCA versions uses:
   CBLAS   interface :  Fast vector & matrix operations
   LAPACKE interface :  Fast linear algebra routines
   SCALAPACK package :  Parallel linear algebra routines
   Shared memory     :  Shared parallel matrices


  ***********************************
  * Starting time: Tue Jul 14 10:23:10 2026
  * Host name:     Angzes-MacBook-Pro.local
  * Process ID:    1585
  * Working dir.:  /Users/liangze/Desktop/Tsinghua 2026 Summer/pdi_h2o2_production/pdi-theory-demo/calculations/pdi/geometry_optimization
  ***********************************

NOTE: MaxCore=8000 MB was set to SCF,MP2,MDCI,CIPSI,MRCI,RASCI and CIS
      => If you want to overwrite this, your respective input block should be placed after the MaxCore statement


***************************************
The coordinates will be read from file: pdi_opt.xyz
***************************************


Your calculation utilizes the geometrical counterpoise correction gCP
Please cite in your paper:
H.Kruse, S. Grimme J.Chem.Phys., 136, (2012), 154101 
   

Your calculation utilizes the atom-pairwise dispersion correction
based on EEQ partial charges (D4)


================================================================================

----- Orbital basis set information -----
Your calculation utilizes the basis: def2-mTZVPP
   Stefan Grimme, Andreas Hansen, Sebastian Ehlert, and Jan-Michael Mewes 
   J. Chem. Phys. 154, 064103 (2021). DOI: 10.1063/5.0040021

----- AuxJ basis set information -----
Your calculation utilizes the basis: def2-mTZVPP/J
   Stefan Grimme, Andreas Hansen, Sebastian Ehlert, and Jan-Michael Mewes 
   J. Chem. Phys. 154, 000000 (2021). DOI: 10.1063/5.0040021

================================================================================
                                        WARNINGS
                       Please study these warnings very carefully!
================================================================================



WARNING: SCAN, rSCAN, or r2SCAN functional requested.
  ===> : libXC variant has now been activated.



================================================================================
                                       INPUT FILE
================================================================================
NAME = pdi_freq.inp
|  1> ! r2SCAN-3c Freq TightSCF NoSym
|  2> 
|  3> %pal
|  4>   nprocs 4
|  5> end
|  6> 
|  7> %maxcore 8000
|  8> 
|  9> * xyzfile 0 1 pdi_opt.xyz
| 10> 
| 11>                          ****END OF INPUT****
================================================================================

                       ****************************
                       * Single Point Calculation *
                       ****************************

---------------------------------
CARTESIAN COORDINATES (ANGSTROEM)
---------------------------------
  C     -0.732487    1.243518    0.009067
  C      0.729438    1.242480   -0.001728
  C      1.425335   -0.001984    0.001697
  C      0.727539   -1.245233   -0.018503
  C     -0.734417   -1.244165   -0.011748
  C     -1.430298    0.000318   -0.013158
  C      1.471217    2.423611    0.002793
  C      2.862624    2.417097    0.003448
  C      3.557420    1.223028    0.000311
  C      2.852567   -0.003015   -0.007379
  C      3.555555   -1.230131   -0.014091
  C      2.858939   -2.423093   -0.024683
  C      1.467524   -2.427477   -0.026387
  C     -1.476214   -2.425255   -0.021914
  C     -2.867620   -2.418715   -0.023711
  C     -3.562399   -1.224658   -0.016114
  C     -2.857530    0.001336   -0.004086
  C     -3.560501    1.228435    0.006962
  C     -2.863868    2.421340    0.022025
  C     -1.472451    2.425715    0.022596
  C     -5.038848   -1.245910   -0.016658
  N     -5.649990    0.003507   -0.004712
  C     -5.036917    1.251970    0.007536
  C      5.033871    1.244304    0.000422
  N      5.645026   -0.005137   -0.006765
  C      5.031970   -1.253647   -0.014241
  O      5.700164    2.266134    0.006626
  O      5.696703   -2.276494   -0.020118
  O     -5.705155   -2.267697   -0.027028
  O     -5.701635    2.274793    0.017581
  H     -6.663771    0.004294   -0.004797
  H      6.658807   -0.005910   -0.006682
  H      0.971881    3.384589    0.002158
  H      3.424549    3.345904    0.006893
  H      3.419438   -3.352743   -0.031374
  H      0.966738   -3.387632   -0.037797
  H     -0.976906   -3.386244   -0.025166
  H     -3.429552   -3.347491   -0.031396
  H     -3.424358    3.350955    0.032956
  H     -0.971634    3.385798    0.037901

----------------------------
CARTESIAN COORDINATES (A.U.)
----------------------------
  NO LB      ZA    FRAG     MASS         X           Y           Z
   0 C     6.0000    0    12.011   -1.384201    2.349908    0.017135
   1 C     6.0000    0    12.011    1.378437    2.347947   -0.003266
   2 C     6.0000    0    12.011    2.693492   -0.003749    0.003206
   3 C     6.0000    0    12.011    1.374850   -2.353150   -0.034965
   4 C     6.0000    0    12.011   -1.387847   -2.351132   -0.022201
   5 C     6.0000    0    12.011   -2.702872    0.000601   -0.024865
   6 C     6.0000    0    12.011    2.780197    4.579960    0.005279
   7 C     6.0000    0    12.011    5.409576    4.567650    0.006516
   8 C     6.0000    0    12.011    6.722549    2.311188    0.000587
   9 C     6.0000    0    12.011    5.390571   -0.005697   -0.013944
  10 C     6.0000    0    12.011    6.719026   -2.324610   -0.026627
  11 C     6.0000    0    12.011    5.402612   -4.578981   -0.046644
  12 C     6.0000    0    12.011    2.773219   -4.587267   -0.049864
  13 C     6.0000    0    12.011   -2.789641   -4.583068   -0.041411
  14 C     6.0000    0    12.011   -5.419016   -4.570708   -0.044806
  15 C     6.0000    0    12.011   -6.731959   -2.314268   -0.030452
  16 C     6.0000    0    12.011   -5.399950    0.002524   -0.007721
  17 C     6.0000    0    12.011   -6.728371    2.321405    0.013156
  18 C     6.0000    0    12.011   -5.411925    4.575669    0.041621
  19 C     6.0000    0    12.011   -2.782530    4.583936    0.042701
  20 C     6.0000    0    12.011   -9.522042   -2.354428   -0.031479
  21 N     7.0000    0    14.007  -10.676934    0.006627   -0.008905
  22 C     6.0000    0    12.011   -9.518394    2.365881    0.014240
  23 C     6.0000    0    12.011    9.512638    2.351393    0.000797
  24 N     7.0000    0    14.007   10.667554   -0.009708   -0.012785
  25 C     6.0000    0    12.011    9.509045   -2.369049   -0.026912
  26 O     8.0000    0    15.999   10.771749    4.282373    0.012522
  27 O     8.0000    0    15.999   10.765209   -4.301950   -0.038017
  28 O     8.0000    0    15.999  -10.781181   -4.285326   -0.051076
  29 O     8.0000    0    15.999  -10.774529    4.298736    0.033223
  30 H     1.0000    0     1.008  -12.592701    0.008115   -0.009065
  31 H     1.0000    0     1.008   12.583321   -0.011168   -0.012627
  32 H     1.0000    0     1.008    1.836590    6.395947    0.004079
  33 H     1.0000    0     1.008    6.471459    6.322842    0.013026
  34 H     1.0000    0     1.008    6.461801   -6.335766   -0.059288
  35 H     1.0000    0     1.008    1.826869   -6.401697   -0.071426
  36 H     1.0000    0     1.008   -1.846085   -6.399073   -0.047557
  37 H     1.0000    0     1.008   -6.480914   -6.325842   -0.059330
  38 H     1.0000    0     1.008   -6.471098    6.332388    0.062278
  39 H     1.0000    0     1.008   -1.836122    6.398230    0.071623

--------------------------------
INTERNAL COORDINATES (ANGSTROEM)
--------------------------------
 C      0   0   0     0.000000000000     0.00000000     0.00000000
 C      1   0   0     1.461965169503     0.00000000     0.00000000
 C      2   1   0     1.425824509901   119.25219820     0.00000000
 C      3   2   1     1.425831352761   121.47634032     1.59808806
 C      4   3   2     1.461972232788   119.25436578   358.58342509
 C      1   2   3     1.425825827817   119.25260883   358.34453573
 C      2   1   3     1.394749429768   122.08639828   180.87923469
 C      7   2   1     1.391422680036   121.86152762   179.46786196
 C      8   7   2     1.381503008195   120.46200751   359.96488015
 C      9   8   7     1.414233553325   119.91168710     0.17673467
 C     10   9   8     1.414231577681   120.29875946   179.83799976
 C     11  10   9     1.381500831192   119.91130356   180.14846457
 C     12  11  10     1.391422584451   120.46246822   359.88397004
 C      5   4   3     1.394754771157   122.08588900   180.41984543
 C     14   5   4     1.391422017798   121.86168366   180.40184408
 C     15  14   5     1.381501592221   120.46192979     0.03668585
 C     16  15  14     1.414229691301   119.91163267   359.89015053
 C     17  16  15     1.414234936991   120.29883050   180.15053769
 C     18  17  16     1.381501821770   119.91138819   179.83964160
 C     19  18  17     1.391423191986   120.46253672     0.18320091
 C     16  15  14     1.476601547806   119.36833707   180.06962722
 N     21  16  15     1.390927560518   115.23937471   179.81940943
 C     22  21  16     1.390924028237   127.78301421     0.00000000
 C      9   8   7     1.476604703621   119.36826542   179.97035953
 N     24   9   8     1.390922046151   115.23928265   180.17758640
 C     25  24   9     1.390924433679   127.78308075     0.00000000
 O     24   9   8     1.219886187095   123.93178980     0.19661566
 O     26  25  24     1.219885716155   120.82911856   179.99821669
 O     21  16  15     1.219886050301   123.93183951   359.80053833
 O     23  22  21     1.219883771124   120.82920256   180.01683838
 H     22  21  16     1.013780720214   116.10863453   180.00881616
 H     25  24   9     1.013780822289   116.10851749   180.00600254
 H      7   2   1     1.082966475186   120.41293171   359.23617627
 H      8   7   2     1.085566306931   120.90545699   179.99384229
 H     12  11  10     1.085565796889   118.63292875   179.89846528
 H     13  12  11     1.082965659543   117.72483890   179.82329874
 H     14   5   4     1.082967299495   120.41365349     0.61990530
 H     15  14   5     1.085565778377   120.90532384   180.01721415
 H     19  18  17     1.085566114867   118.63272811   180.15929065
 H     20  19  18     1.082964362970   117.72584605   180.19147050

---------------------------
INTERNAL COORDINATES (A.U.)
---------------------------
 C      0   0   0     0.000000000000     0.00000000     0.00000000
 C      1   0   0     2.762713787692     0.00000000     0.00000000
 C      2   1   0     2.694417838745   119.25219820     0.00000000
 C      3   2   1     2.694430769878   121.47634032     1.59808806
 C      4   3   2     2.762727135367   119.25436578   358.58342509
 C      1   2   3     2.694420329246   119.25260883   358.34453573
 C      2   1   3     2.635694447704   122.08639828   180.87923469
 C      7   2   1     2.629407801795   121.86152762   179.46786196
 C      8   7   2     2.610662338677   120.46200751   359.96488015
 C      9   8   7     2.672514105187   119.91168710     0.17673467
 C     10   9   8     2.672510371761   120.29875946   179.83799976
 C     11  10   9     2.610658224738   119.91130356   180.14846457
 C     12  11  10     2.629407621165   120.46246822   359.88397004
 C      5   4   3     2.635704541467   122.08588900   180.41984543
 C     14   5   4     2.629406550346   121.86168366   180.40184408
 C     15  14   5     2.610659662874   120.46192979     0.03668585
 C     16  15  14     2.672506807020   119.91163267   359.89015053
 C     17  16  15     2.672516719937   120.29883050   180.15053769
 C     18  17  16     2.610660096659   119.91138819   179.83964160
 C     19  18  17     2.629408769240   120.46253672     0.18320091
 C     16  15  14     2.790372534277   119.36833707   180.06962722
 N     21  16  15     2.628472161503   115.23937471   179.81940943
 C     22  21  16     2.628465486459   127.78301421     0.00000000
 C      9   8   7     2.790378497904   119.36826542   179.97035953
 N     24   9   8     2.628461740858   115.23928265   180.17758640
 C     25  24   9     2.628466252633   127.78308075     0.00000000
 O     24   9   8     2.305250808162   123.93178980     0.19661566
 O     26  25  24     2.305249918216   120.82911856   179.99821669
 O     21  16  15     2.305250549659   123.93183951   359.80053833
 O     23  22  21     2.305246242640   120.82920256   180.01683838
 H     22  21  16     1.915767921055   116.10863453   180.00881616
 H     25  24   9     1.915768113947   116.10851749   180.00600254
 H      7   2   1     2.046510050319   120.41293171   359.23617627
 H      8   7   2     2.051423020313   120.90545699   179.99384229
 H     12  11  10     2.051422056472   118.63292875   179.89846528
 H     13  12  11     2.046508508979   117.72483890   179.82329874
 H     14   5   4     2.046511608039   120.41365349     0.61990530
 H     15  14   5     2.051422021490   120.90532384   180.01721415
 H     19  18  17     2.051422657363   118.63272811   180.15929065
 H     20  19  18     2.046506058811   117.72584605   180.19147050

---------------------
BASIS SET INFORMATION
---------------------
There are 4 groups of distinct atoms

 Group   1 Type C   : 11s6p1d contracted to 5s3p1d pattern {62111/411/1}
 Group   2 Type N   : 11s6p2d contracted to 5s3p2d pattern {62111/411/11}
 Group   3 Type O   : 11s6p2d contracted to 5s3p2d pattern {62111/411/11}
 Group   4 Type H   : 4s1p contracted to 2s1p pattern {31/1}

Atom   0C    basis set group =>   1
Atom   1C    basis set group =>   1
Atom   2C    basis set group =>   1
Atom   3C    basis set group =>   1
Atom   4C    basis set group =>   1
Atom   5C    basis set group =>   1
Atom   6C    basis set group =>   1
Atom   7C    basis set group =>   1
Atom   8C    basis set group =>   1
Atom   9C    basis set group =>   1
Atom  10C    basis set group =>   1
Atom  11C    basis set group =>   1
Atom  12C    basis set group =>   1
Atom  13C    basis set group =>   1
Atom  14C    basis set group =>   1
Atom  15C    basis set group =>   1
Atom  16C    basis set group =>   1
Atom  17C    basis set group =>   1
Atom  18C    basis set group =>   1
Atom  19C    basis set group =>   1
Atom  20C    basis set group =>   1
Atom  21N    basis set group =>   2
Atom  22C    basis set group =>   1
Atom  23C    basis set group =>   1
Atom  24N    basis set group =>   2
Atom  25C    basis set group =>   1
Atom  26O    basis set group =>   3
Atom  27O    basis set group =>   3
Atom  28O    basis set group =>   3
Atom  29O    basis set group =>   3
Atom  30H    basis set group =>   4
Atom  31H    basis set group =>   4
Atom  32H    basis set group =>   4
Atom  33H    basis set group =>   4
Atom  34H    basis set group =>   4
Atom  35H    basis set group =>   4
Atom  36H    basis set group =>   4
Atom  37H    basis set group =>   4
Atom  38H    basis set group =>   4
Atom  39H    basis set group =>   4
---------------------------------
AUXILIARY/J BASIS SET INFORMATION
---------------------------------
There are 4 groups of distinct atoms

 Group   1 Type C   : 8s3p3d contracted to 6s3p3d pattern {311111/111/111}
 Group   2 Type N   : 8s3p3d contracted to 6s3p3d pattern {311111/111/111}
 Group   3 Type O   : 8s3p3d contracted to 6s3p3d pattern {311111/111/111}
 Group   4 Type H   : 5s2p1d contracted to 3s1p1d pattern {311/2/1}

Atom   0C    basis set group =>   1
Atom   1C    basis set group =>   1
Atom   2C    basis set group =>   1
Atom   3C    basis set group =>   1
Atom   4C    basis set group =>   1
Atom   5C    basis set group =>   1
Atom   6C    basis set group =>   1
Atom   7C    basis set group =>   1
Atom   8C    basis set group =>   1
Atom   9C    basis set group =>   1
Atom  10C    basis set group =>   1
Atom  11C    basis set group =>   1
Atom  12C    basis set group =>   1
Atom  13C    basis set group =>   1
Atom  14C    basis set group =>   1
Atom  15C    basis set group =>   1
Atom  16C    basis set group =>   1
Atom  17C    basis set group =>   1
Atom  18C    basis set group =>   1
Atom  19C    basis set group =>   1
Atom  20C    basis set group =>   1
Atom  21N    basis set group =>   2
Atom  22C    basis set group =>   1
Atom  23C    basis set group =>   1
Atom  24N    basis set group =>   2
Atom  25C    basis set group =>   1
Atom  26O    basis set group =>   3
Atom  27O    basis set group =>   3
Atom  28O    basis set group =>   3
Atom  29O    basis set group =>   3
Atom  30H    basis set group =>   4
Atom  31H    basis set group =>   4
Atom  32H    basis set group =>   4
Atom  33H    basis set group =>   4
Atom  34H    basis set group =>   4
Atom  35H    basis set group =>   4
Atom  36H    basis set group =>   4
Atom  37H    basis set group =>   4
Atom  38H    basis set group =>   4
Atom  39H    basis set group =>   4


           ************************************************************
           *        Program running with 4 parallel MPI-processes     *
           *              working on a common directory               *
           ************************************************************
------------------------------------------------------------------------------
                             ORCA STARTUP CALCULATIONS
                           -- RI-GTO INTEGRALS CHOSEN --
------------------------------------------------------------------------------
------------------------------------------------------------------------------
                   ___                                                        
                  /   \      - P O W E R E D   B Y -                         
                 /     \                                                     
                 |  |  |   _    _      __       _____    __    __             
                 |  |  |  | |  | |    /  \     |  _  \  |  |  /  |          
                  \  \/   | |  | |   /    \    | | | |  |  | /  /          
                 / \  \   | |__| |  /  /\  \   | |_| |  |  |/  /          
                |  |  |   |  __  | /  /__\  \  |    /   |      \           
                |  |  |   | |  | | |   __   |  |    \   |  |\   \          
                \     /   | |  | | |  |  |  |  | |\  \  |  | \   \       
                 \___/    |_|  |_| |__|  |__|  |_| \__\ |__|  \__/        
                                                                              
                      - O R C A' S   B I G   F R I E N D -                    
                                      &                                       
                       - I N T E G R A L  F E E D E R -                       
                                                                              
 v1 FN, 2020, v2 2021, v3 2022-2024                                           
------------------------------------------------------------------------------


----------------------
SHARK INTEGRAL PACKAGE
----------------------

Number of atoms                             ...     40
Number of basis functions                   ...    650
Number of shells                            ...    306
Maximum angular momentum                    ...      2
Integral batch strategy                     ... SHARK/LIBINT Hybrid
RI-J (if used) integral strategy            ... SPLIT-RIJ (Revised 2003 algorithm where possible)
Printlevel                                  ...      1
Contraction scheme used                     ... SEGMENTED contraction
Prescreening option                         ... SCHWARTZ
   Thresh                                   ... 2.500e-11
   Tcut                                     ... 2.500e-12
   Tpresel                                  ... 2.500e-12 
Coulomb Range Separation                    ... NOT USED
Exchange Range Separation                   ... NOT USED
Multipole approximations                    ... NOT USED
Finite Nucleus Model                        ... NOT USED
CABS basis                                  ... NOT available
Auxiliary Coulomb fitting basis             ... AVAILABLE
   # of basis functions in Aux-J            ...   1010
   # of shells in Aux-J                     ...    410
   Maximum angular momentum in Aux-J        ...      2
Auxiliary J/K fitting basis                 ... NOT available
Auxiliary Correlation fitting basis         ... NOT available
Auxiliary 'external' fitting basis          ... NOT available

Checking pre-screening integrals            ... done (  0.0 sec) Dimension = 306
   => SHARK Basis and OBASIS are compatible. Storing Pre-screening
Shell pair information
Shell pair cut-off parameter TPreSel        ...   2.5e-12
Total number of shell pairs                 ...     46971
Shell pairs after pre-screening             ...     30493
Total number of primitive shell pairs       ...    178596
Primitive shell pairs kept                  ...     71197
          la=0 lb=0:   8767 shell pairs
          la=1 lb=0:  11706 shell pairs
          la=1 lb=1:   3829 shell pairs
          la=2 lb=0:   3460 shell pairs
          la=2 lb=1:   2368 shell pairs
          la=2 lb=2:    363 shell pairs

Checking whether 4 symmetric matrices of dimension 650 fit in memory
:Max Core in MB      =   8000.00
 MB in use           =     30.92
 MB left             =   7969.08
 MB needed           =      6.46
 Data fit in memory  = YES
Calculating RI/J V-Matrix + Cholesky decomp.... done (  0.1 sec)
Calculating Nuclear repulsion               ... done (  0.0 sec) ENN=   2614.830735126149 Eh

Diagonalization of the overlap matrix:
Smallest eigenvalue                        ... 4.156e-06
Time for diagonalization                   ...    0.030 sec
Threshold for overlap eigenvalues          ... 1.000e-07
Number of eigenvalues below threshold      ... 0
Time for construction of square roots      ...    0.007 sec
Total time needed                          ...    0.044 sec

-------------------
DFT GRID GENERATION
-------------------

General Integration Accuracy     IntAcc      ... 4.388
Radial Grid Type                 RadialGrid  ... OptM3 with GC (2021)
Angular Grid (max. ang.)         AngularGrid ... 4 (Lebedev-302)
Angular grid pruning method      GridPruning ... 4 (adaptive)
Weight generation scheme         WeightScheme... mBecke (2022)
Basis function cutoff            BFCut       ... 1.0000e-11
Integration weight cutoff        WCut        ... 1.0000e-14
Partially contracted basis set               ... off
Rotationally invariant grid construction     ... off
Angular grids for H and He will be reduced by one unit
Diffuse basis detected: some atoms will have their outermost
                        angular grid increased by 1.

Total number of grid points                  ...   211393
Total number of batches                      ...     3327
Average number of points per batch           ...       63
Average number of grid points per atom       ...     5285
Grids setup in   1.0 sec
Initializing property integral containers    ... done (  0.0 sec)

SHARK setup successfully completed in   1.3 seconds

Maximum memory used throughout the entire STARTUP-calculation: 75.6 MB


           ************************************************************
           *        Program running with 4 parallel MPI-processes     *
           *              working on a common directory               *
           ************************************************************
-------------------------------------------------------------------------------
                                 ORCA GUESS
                   Start orbitals & Density for SCF / CASSCF
-------------------------------------------------------------------------------

------------
SCF SETTINGS
------------
Hamiltonian:
 Density Functional     Method          .... DFT(GTOs)
  Functional kind                       .... Exchange
  Functional name                       .... Re-regularized SCAN exchange by Furness et al
  Functional family                     .... MGGA
  Functional refs                              
    [ 0] J. W. Furness, A. D. Kaplan, J. Ning, J. P. Perdew, and J. Sun.,  J. Phys. Chem. Lett. 11, 8208-8215 (2020), doi: 10.1021/acs.jpclett.0c02405
    [ 1] J. W. Furness, A. D. Kaplan, J. Ning, J. P. Perdew, and J. Sun.,  J. Phys. Chem. Lett. 11, 9248-9248 (2020), doi: 10.1021/acs.jpclett.0c03077
  Functional external parameters        .... 6
    Parameter  0 _c1        =  6.670000e-01 : c1 parameter        
    Parameter  1 _c2        =  8.000000e-01 : c2 parameter        
    Parameter  2 _d         =  1.240000e+00 : d parameter         
    Parameter  3 _k1        =  6.500000e-02 : k1 parameter        
    Parameter  4 _eta       =  1.000000e-03 : eta parameter       
    Parameter  5 _dp2       =  3.610000e-01 : dp2 parameter       
  Functional kind                       .... Correlation
  Functional name                       .... Re-regularized SCAN correlation by Furness et al
  Functional family                     .... MGGA
  Functional refs                              
    [ 0] J. W. Furness, A. D. Kaplan, J. Ning, J. P. Perdew, and J. Sun.,  J. Phys. Chem. Lett. 11, 8208-8215 (2020), doi: 10.1021/acs.jpclett.0c02405
    [ 1] J. W. Furness, A. D. Kaplan, J. Ning, J. P. Perdew, and J. Sun.,  J. Phys. Chem. Lett. 11, 9248-9248 (2020), doi: 10.1021/acs.jpclett.0c03077
  Functional external parameters        .... 1
    Parameter  0 _eta       =  1.000000e-03 : Regularization parameter
 Gradients option       PostSCFGGA      .... off
 RI-approximation to the Coulomb term is turned on
   Number of AuxJ basis functions       .... 1010


General Settings:
 Integral files         IntName         .... pdi_freq
 Hartree-Fock type      HFTyp           .... RHF
 Total Charge           Charge          ....    0
 Multiplicity           Mult            ....    1
 Number of Electrons    NEL             ....  200
 Basis Dimension        Dim             ....  650
 Nuclear Repulsion      ENuc            ....   2614.8307351261 Eh

Convergence Acceleration:
 AO-DIIS                CNVDIIS         .... on
   Start iteration      DIISMaxIt       ....    12
   Startup error        DIISStart       ....  0.200000
   # of expansion vecs  DIISMaxEq       ....     5
   Bias factor          DIISBfac        ....   1.050
   Max. coefficient     DIISMaxC        ....  10.000
 MO-DIIS                CNVKDIIS        .... off
 Trust-Rad. Augm. Hess. CNVTRAH         .... auto
   Auto Start mean grad. ratio tolernc. ....  1.125000
   Auto Start start iteration           ....    50
   Auto Start num. interpolation iter.  ....    10
   Max. Number of Micro iterations      ....    24
   Max. Number of Macro iterations      .... Maxiter - #DIIS iter
   Number of Davidson start vectors     ....     2
   Converg. threshold    (grad. norm)   ....   1.000e-05
   Grad. Scal. Fac. for Micro threshold ....   0.100
   Minimum threshold for Micro iter.    ....   1.000e-02
   NR start threshold (gradient norm)   ....   1.000e-04
   Initial trust radius                 ....   0.400
   Minimum AH scaling param. (alpha)    ....   1.000
   Maximum AH scaling param. (alpha)    .... 1000.000
   Quad. conv. algorithm                .... NR
   White noise on init. David. guess    .... on
   Maximum white noise                  ....   0.010
   Pseudo random numbers                .... off
   Inactive MOs                         .... canonical
   Orbital update algorithm             .... Taylor
   Preconditioner                       .... Diag
   Full preconditioner red. dimension   ....   250
   COSX micro iterations for RIJONX calc.... off
 SOSCF                 CNVSOSCF           .... on
   Start iteration     SOSCFMaxIt         ....   150
   Startup grad/error  SOSCFStart         ....  0.003300
   Hessian update      SOSCFHessUp        .... L-BFGS
   Autom. constraints  SOSCFAutoConstrain .... off
 Level Shifting         CNVShift        .... on
   Level shift para.    LevelShift      ....    0.2500
   Turn off err/grad.   ShiftErr        ....    0.0010
 Zerner damping         CNVZerner       .... off
 Static damping         CNVDamp         .... on
   Fraction old density DampFac         ....    0.7000
   Max. Damping (<1)    DampMax         ....    0.9800
   Min. Damping (>=0)   DampMin         ....    0.0000
   Turn off err/grad.   DampErr         ....    0.1000

SCF Procedure:
 Maximum # iterations   MaxIter         ....   125
 SCF integral mode      SCFMode         .... Direct
   Integral package                     .... SHARK and LIBINT hybrid scheme
 Reset frequency        DirectResetFreq ....    20
 Integral Threshold     Thresh          ....  2.500e-11 Eh
 Primitive CutOff       TCut            ....  2.500e-12 Eh

Convergence Tolerance:
 Convergence Check Mode ConvCheckMode   .... Total+1el-Energy
 Convergence forced     ConvForced      .... 0
 Energy Change          TolE            ....  1.000e-08 Eh
 1-El. energy change                    ....  1.000e-05 Eh
 Orbital Gradient       TolG            ....  1.000e-05
 Orbital Rotation angle TolX            ....  1.000e-05
 DIIS Error             TolErr          ....  5.000e-07

------------------------------
INITIAL GUESS: MODEL POTENTIAL
------------------------------
Loading Hartree-Fock densities                     ... done
Calculating cut-offs                               ... done
Initializing the effective Hamiltonian             ... done
Setting up the integral package (SHARK)            ... done
Starting the Coulomb interaction                   ... done (   0.3 sec)
Making the grid                                    ... done (   0.3 sec)
Mapping shells                                     ... done
Starting the XC term evaluation                    ... done (   0.2 sec)
  promolecular density results
     # of electrons  =    199.978912791
     EX              =   -171.559105874
     EC              =     -6.841957847
     EX+EC           =   -178.401063721
Transforming the Hamiltonian                       ... done (   0.0 sec)
Diagonalizing the Hamiltonian                      ... done (   0.0 sec)
Back transforming the eigenvectors                 ... done (   0.0 sec)
Now organizing SCF variables                       ... done
                      ------------------
                      INITIAL GUESS DONE (   0.8 sec)
                      ------------------
             **** ENERGY FILE WAS UPDATED (pdi_freq.en.tmp) ****
Finished Guess after   1.0 sec
Maximum memory used throughout the entire GUESS-calculation: 45.9 MB


           ************************************************************
           *        Program running with 4 parallel MPI-processes     *
           *              working on a common directory               *
           ************************************************************

-------------------------------------------------------------------------------------------
                                      ORCA LEAN-SCF
                              memory conserving SCF solver
-------------------------------------------------------------------------------------------

----------------------------------------D-I-I-S--------------------------------------------
Iteration    Energy (Eh)           Delta-E    RMSDP     MaxDP     DIISErr   Damp  Time(sec)
-------------------------------------------------------------------------------------------
               ***  Starting incremental Fock matrix formation  ***
    1    -1330.2959106927319226     0.00e+00  1.15e-02  3.30e-01  2.76e-01  0.700   2.8
Warning: op=0 Small HOMO/LUMO gap (   0.056) - skipping pre-diagonalization
         Will do a full diagonalization
    2    -1330.5885996916222211    -2.93e-01  8.14e-03  2.17e-01  9.30e-02  0.700   2.3
                               ***Turning on AO-DIIS***
    3    -1330.6908264325506934    -1.02e-01  3.02e-03  1.12e-01  4.10e-02  0.700   2.2
    4    -1330.7567060590822621    -6.59e-02  6.46e-03  2.61e-01  1.90e-02  0.000   2.0
    5    -1330.9029410676594125    -1.46e-01  2.19e-03  6.90e-02  5.36e-03  0.000   2.2
                              *** Initializing SOSCF ***
---------------------------------------S-O-S-C-F--------------------------------------
Iteration    Energy (Eh)           Delta-E    RMSDP     MaxDP     MaxGrad    Time(sec)
--------------------------------------------------------------------------------------
    6    -1330.9037937880775644    -8.53e-04  1.45e-03  4.76e-02  2.30e-03     1.9
               *** Restarting incremental Fock matrix formation ***
    7    -1330.9038383389665796    -4.46e-05  1.19e-03  2.98e-02  6.78e-04     2.8
    8    -1330.9037404895252621     9.78e-05  7.49e-04  2.01e-02  1.57e-03     1.7
    9    -1330.9038653837505990    -1.25e-04  1.58e-04  7.00e-03  1.66e-04     1.6
   10    -1330.9038633197787931     2.06e-06  8.20e-05  2.77e-03  2.74e-04     1.5
   11    -1330.9038665101506922    -3.19e-06  3.51e-05  1.37e-03  1.89e-05     1.4
   12    -1330.9038664577833515     5.24e-08  1.81e-05  6.76e-04  3.41e-05     1.4
   13    -1330.9038665018379106    -4.41e-08  4.47e-05  1.60e-03  4.08e-06     1.3
   14    -1330.9038665096536533    -7.82e-09  2.40e-05  8.03e-04  5.61e-06     1.2
                 **** Energy Check signals convergence ****

               *****************************************************
               *                     SUCCESS                       *
               *           SCF CONVERGED AFTER  14 CYCLES          *
               *****************************************************

             **** ENERGY FILE WAS UPDATED (pdi_freq.en.tmp) ****

----------------
TOTAL SCF ENERGY
----------------

Total Energy       :      -1330.90386653916858 Eh          -36215.73538 eV

Components:
Nuclear Repulsion  :       2614.83073512614874 Eh           71153.16166 eV
Electronic Energy  :      -3945.73460166531731 Eh         -107368.89704 eV
One Electron Energy:      -7005.13585816735213 Eh         -190619.43761 eV
Two Electron Energy:       3059.40125650203481 Eh           83250.54057 eV

Virial components:
Potential Energy   :      -2656.30009228842573 Eh          -72281.60024 eV
Kinetic Energy     :       1325.39622574925738 Eh           36065.86486 eV
Virial Ratio       :          2.00415546738621

DFT components:
N(Alpha)           :      100.000086112159 electrons
N(Beta)            :      100.000086112159 electrons
N(Total)           :      200.000172224317 electrons
E(X)               :     -175.189241284323 Eh       
E(C)               :       -6.701925211942 Eh       
E(XC)              :     -181.891166496265 Eh       

---------------
SCF CONVERGENCE
---------------

  Last Energy change         ...    7.8157e-09  Tolerance :   1.0000e-08
  Last MAX-Density change    ...    8.0346e-04  Tolerance :   1.0000e-07
  Last RMS-Density change    ...    2.4017e-05  Tolerance :   5.0000e-09
  Last DIIS Error            ...    2.3028e-03  Tolerance :   5.0000e-07
  Last Orbital Gradient      ...    5.6083e-06  Tolerance :   1.0000e-05
  Last Orbital Rotation      ...    1.3895e-05  Tolerance :   1.0000e-05


----------------
ORBITAL ENERGIES
----------------

  NO   OCC          E(Eh)            E(eV) 
   0   2.0000     -18.949011      -515.6288 
   1   2.0000     -18.949010      -515.6288 
   2   2.0000     -18.949009      -515.6287 
   3   2.0000     -18.949008      -515.6287 
   4   2.0000     -14.227619      -387.1532 
   5   2.0000     -14.227618      -387.1532 
   6   2.0000     -10.166623      -276.6479 
   7   2.0000     -10.166622      -276.6479 
   8   2.0000     -10.166619      -276.6478 
   9   2.0000     -10.166619      -276.6478 
  10   2.0000     -10.097863      -274.7768 
  11   2.0000     -10.097859      -274.7767 
  12   2.0000     -10.097638      -274.7707 
  13   2.0000     -10.097619      -274.7702 
  14   2.0000     -10.093905      -274.6691 
  15   2.0000     -10.093902      -274.6690 
  16   2.0000     -10.093336      -274.6536 
  17   2.0000     -10.093330      -274.6535 
  18   2.0000     -10.083282      -274.3801 
  19   2.0000     -10.083282      -274.3800 
  20   2.0000     -10.083274      -274.3798 
  21   2.0000     -10.083273      -274.3798 
  22   2.0000     -10.078904      -274.2609 
  23   2.0000     -10.078902      -274.2609 
  24   2.0000     -10.078896      -274.2607 
  25   2.0000     -10.078893      -274.2606 
  26   2.0000     -10.078105      -274.2392 
  27   2.0000     -10.078105      -274.2392 
  28   2.0000     -10.078104      -274.2392 
  29   2.0000     -10.078103      -274.2391 
  30   2.0000      -1.043155       -28.3857 
  31   2.0000      -1.043153       -28.3856 
  32   2.0000      -1.024208       -27.8701 
  33   2.0000      -1.024208       -27.8701 
  34   2.0000      -0.921556       -25.0768 
  35   2.0000      -0.920414       -25.0458 
  36   2.0000      -0.905343       -24.6356 
  37   2.0000      -0.879854       -23.9420 
  38   2.0000      -0.850522       -23.1439 
  39   2.0000      -0.828759       -22.5517 
  40   2.0000      -0.826742       -22.4968 
  41   2.0000      -0.771910       -21.0047 
  42   2.0000      -0.771831       -21.0026 
  43   2.0000      -0.762530       -20.7495 
  44   2.0000      -0.749549       -20.3963 
  45   2.0000      -0.725326       -19.7371 
  46   2.0000      -0.683394       -18.5961 
  47   2.0000      -0.675667       -18.3858 
  48   2.0000      -0.650083       -17.6897 
  49   2.0000      -0.646872       -17.6023 
  50   2.0000      -0.629323       -17.1248 
  51   2.0000      -0.627272       -17.0689 
  52   2.0000      -0.612858       -16.6767 
  53   2.0000      -0.608703       -16.5637 
  54   2.0000      -0.564881       -15.3712 
  55   2.0000      -0.559915       -15.2361 
  56   2.0000      -0.537720       -14.6321 
  57   2.0000      -0.530919       -14.4470 
  58   2.0000      -0.523854       -14.2548 
  59   2.0000      -0.517521       -14.0825 
  60   2.0000      -0.494920       -13.4675 
  61   2.0000      -0.483057       -13.1447 
  62   2.0000      -0.476012       -12.9529 
  63   2.0000      -0.468507       -12.7487 
  64   2.0000      -0.457128       -12.4391 
  65   2.0000      -0.456470       -12.4212 
  66   2.0000      -0.454931       -12.3793 
  67   2.0000      -0.451604       -12.2888 
  68   2.0000      -0.444928       -12.1071 
  69   2.0000      -0.427272       -11.6266 
  70   2.0000      -0.423846       -11.5334 
  71   2.0000      -0.423132       -11.5140 
  72   2.0000      -0.423004       -11.5105 
  73   2.0000      -0.414596       -11.2817 
  74   2.0000      -0.412360       -11.2209 
  75   2.0000      -0.410009       -11.1569 
  76   2.0000      -0.394327       -10.7302 
  77   2.0000      -0.394322       -10.7301 
  78   2.0000      -0.392509       -10.6807 
  79   2.0000      -0.392371       -10.6769 
  80   2.0000      -0.390138       -10.6162 
  81   2.0000      -0.389009       -10.5855 
  82   2.0000      -0.377611       -10.2753 
  83   2.0000      -0.362573        -9.8661 
  84   2.0000      -0.357272        -9.7219 
  85   2.0000      -0.343853        -9.3567 
  86   2.0000      -0.333407        -9.0725 
  87   2.0000      -0.331197        -9.0123 
  88   2.0000      -0.329905        -8.9772 
  89   2.0000      -0.282076        -7.6757 
  90   2.0000      -0.280000        -7.6192 
  91   2.0000      -0.277796        -7.5592 
  92   2.0000      -0.275713        -7.5025 
  93   2.0000      -0.273116        -7.4319 
  94   2.0000      -0.268989        -7.3196 
  95   2.0000      -0.268986        -7.3195 
  96   2.0000      -0.268729        -7.3125 
  97   2.0000      -0.247495        -6.7347 
  98   2.0000      -0.247394        -6.7319 
  99   2.0000      -0.220324        -5.9953 
 100   0.0000      -0.160604        -4.3703 
 101   0.0000      -0.105528        -2.8716 
 102   0.0000      -0.100730        -2.7410 
 103   0.0000      -0.086405        -2.3512 
 104   0.0000      -0.065316        -1.7774 
 105   0.0000      -0.053812        -1.4643 
 106   0.0000      -0.052672        -1.4333 
 107   0.0000      -0.017340        -0.4718 
 108   0.0000       0.015624         0.4252 
 109   0.0000       0.034234         0.9316 
 110   0.0000       0.042936         1.1683 
*Only the first 10 virtual orbitals were printed.

                    ********************************
                    * MULLIKEN POPULATION ANALYSIS *
                    ********************************

-----------------------
MULLIKEN ATOMIC CHARGES
-----------------------
   0 C :    0.157149
   1 C :    0.157173
   2 C :    0.031313
   3 C :    0.158633
   4 C :    0.158598
   5 C :    0.031330
   6 C :   -0.233566
   7 C :   -0.288023
   8 C :    0.075711
   9 C :    0.274852
  10 C :    0.075526
  11 C :   -0.287741
  12 C :   -0.234151
  13 C :   -0.234110
  14 C :   -0.287715
  15 C :    0.075534
  16 C :    0.274985
  17 C :    0.075641
  18 C :   -0.288014
  19 C :   -0.233605
  20 C :    0.080741
  21 N :   -0.032733
  22 C :    0.080756
  23 C :    0.080780
  24 N :   -0.032737
  25 C :    0.080743
  26 O :   -0.374509
  27 O :   -0.374507
  28 O :   -0.374507
  29 O :   -0.374508
  30 H :    0.271809
  31 H :    0.271811
  32 H :    0.127013
  33 H :    0.182339
  34 H :    0.182331
  35 H :    0.126988
  36 H :    0.126988
  37 H :    0.182335
  38 H :    0.182336
  39 H :    0.127013
Sum of atomic charges:   -0.0000000

--------------------------------
MULLIKEN REDUCED ORBITAL CHARGES
--------------------------------
  0 C s       :     3.302518  s :     3.302518
      pz      :     0.957206  p :     2.491275
      px      :     0.728229
      py      :     0.805840
      dz2     :     0.003596  d :     0.049057
      dxz     :     0.006303
      dyz     :     0.006716
      dx2y2   :     0.016472
      dxy     :     0.015970

  1 C s       :     3.302435  s :     3.302435
      pz      :     0.960517  p :     2.491334
      px      :     0.728292
      py      :     0.802525
      dz2     :     0.003594  d :     0.049057
      dxz     :     0.006301
      dyz     :     0.006713
      dx2y2   :     0.016480
      dxy     :     0.015968

  2 C s       :     3.554465  s :     3.554465
      pz      :     0.982224  p :     2.366299
      px      :     0.674334
      py      :     0.709741
      dz2     :     0.003650  d :     0.047923
      dxz     :     0.005642
      dyz     :     0.006222
      dx2y2   :     0.016381
      dxy     :     0.016028

  3 C s       :     3.302774  s :     3.302774
      pz      :     0.957764  p :     2.489537
      px      :     0.727298
      py      :     0.804475
      dz2     :     0.003595  d :     0.049056
      dxz     :     0.006302
      dyz     :     0.006716
      dx2y2   :     0.016473
      dxy     :     0.015971

  4 C s       :     3.302724  s :     3.302724
      pz      :     0.960952  p :     2.489622
      px      :     0.727306
      py      :     0.801364
      dz2     :     0.003594  d :     0.049056
      dxz     :     0.006301
      dyz     :     0.006713
      dx2y2   :     0.016480
      dxy     :     0.015968

  5 C s       :     3.554450  s :     3.554450
      pz      :     0.982186  p :     2.366297
      px      :     0.674378
      py      :     0.709733
      dz2     :     0.003650  d :     0.047923
      dxz     :     0.005642
      dyz     :     0.006222
      dx2y2   :     0.016380
      dxy     :     0.016027

  6 C s       :     3.245437  s :     3.245437
      pz      :     0.984621  p :     2.950164
      px      :     0.973767
      py      :     0.991776
      dz2     :     0.003195  d :     0.037964
      dxz     :     0.005454
      dyz     :     0.003010
      dx2y2   :     0.012488
      dxy     :     0.013817

  7 C s       :     3.283799  s :     3.283799
      pz      :     0.914384  p :     2.965034
      px      :     1.006681
      py      :     1.043969
      dz2     :     0.003186  d :     0.039190
      dxz     :     0.006017
      dyz     :     0.003610
      dx2y2   :     0.012364
      dxy     :     0.014013

  8 C s       :     3.208699  s :     3.208699
      pz      :     1.018585  p :     2.668643
      px      :     0.821170
      py      :     0.828888
      dz2     :     0.003777  d :     0.046946
      dxz     :     0.004184
      dyz     :     0.006826
      dx2y2   :     0.017541
      dxy     :     0.014619

  9 C s       :     3.433782  s :     3.433782
      pz      :     0.963295  p :     2.241360
      px      :     0.540912
      py      :     0.737152
      dz2     :     0.003662  d :     0.050007
      dxz     :     0.006325
      dyz     :     0.007192
      dx2y2   :     0.016410
      dxy     :     0.016418

 10 C s       :     3.208835  s :     3.208835
      pz      :     1.019126  p :     2.668693
      px      :     0.821527
      py      :     0.828040
      dz2     :     0.003777  d :     0.046946
      dxz     :     0.004185
      dyz     :     0.006825
      dx2y2   :     0.017544
      dxy     :     0.014615

 11 C s       :     3.283610  s :     3.283610
      pz      :     0.914039  p :     2.964941
      px      :     1.006567
      py      :     1.044334
      dz2     :     0.003186  d :     0.039190
      dxz     :     0.006024
      dyz     :     0.003604
      dx2y2   :     0.012364
      dxy     :     0.014012

 12 C s       :     3.245744  s :     3.245744
      pz      :     0.985123  p :     2.950443
      px      :     0.974105
      py      :     0.991215
      dz2     :     0.003195  d :     0.037964
      dxz     :     0.005449
      dyz     :     0.003016
      dx2y2   :     0.012484
      dxy     :     0.013820

 13 C s       :     3.245708  s :     3.245708
      pz      :     0.984742  p :     2.950438
      px      :     0.974021
      py      :     0.991675
      dz2     :     0.003196  d :     0.037964
      dxz     :     0.005454
      dyz     :     0.003010
      dx2y2   :     0.012488
      dxy     :     0.013816

 14 C s       :     3.283570  s :     3.283570
      pz      :     0.914423  p :     2.964954
      px      :     1.006614
      py      :     1.043917
      dz2     :     0.003186  d :     0.039190
      dxz     :     0.006017
      dyz     :     0.003611
      dx2y2   :     0.012364
      dxy     :     0.014013

 15 C s       :     3.208877  s :     3.208877
      pz      :     1.018493  p :     2.668643
      px      :     0.821186
      py      :     0.828965
      dz2     :     0.003777  d :     0.046946
      dxz     :     0.004185
      dyz     :     0.006826
      dx2y2   :     0.017540
      dxy     :     0.014618

 16 C s       :     3.433758  s :     3.433758
      pz      :     0.963266  p :     2.241250
      px      :     0.540861
      py      :     0.737123
      dz2     :     0.003663  d :     0.050007
      dxz     :     0.006325
      dyz     :     0.007192
      dx2y2   :     0.016409
      dxy     :     0.016418

 17 C s       :     3.208743  s :     3.208743
      pz      :     1.019205  p :     2.668670
      px      :     0.821507
      py      :     0.827957
      dz2     :     0.003778  d :     0.046946
      dxz     :     0.004186
      dyz     :     0.006825
      dx2y2   :     0.017543
      dxy     :     0.014614

 18 C s       :     3.283798  s :     3.283798
      pz      :     0.914037  p :     2.965026
      px      :     1.006650
      py      :     1.044338
      dz2     :     0.003187  d :     0.039190
      dxz     :     0.006025
      dyz     :     0.003605
      dx2y2   :     0.012363
      dxy     :     0.014011

 19 C s       :     3.245450  s :     3.245450
      pz      :     0.984980  p :     2.950191
      px      :     0.973882
      py      :     0.991329
      dz2     :     0.003195  d :     0.037964
      dxz     :     0.005449
      dyz     :     0.003017
      dx2y2   :     0.012483
      dxy     :     0.013820

 20 C s       :     3.177628  s :     3.177628
      pz      :     0.795920  p :     2.628884
      px      :     0.969157
      py      :     0.863807
      dz2     :     0.005310  d :     0.112747
      dxz     :     0.010089
      dyz     :     0.021807
      dx2y2   :     0.045050
      dxy     :     0.030490

 21 N s       :     3.317289  s :     3.317289
      pz      :     1.598216  p :     3.625904
      px      :     1.144774
      py      :     0.882913
      dz2     :     0.007728  d :     0.089541
      dxz     :     0.009313
      dyz     :     0.009631
      dx2y2   :     0.025956
      dxy     :     0.036913

 22 C s       :     3.177608  s :     3.177608
      pz      :     0.795886  p :     2.628889
      px      :     0.969340
      py      :     0.863663
      dz2     :     0.005311  d :     0.112748
      dxz     :     0.010075
      dyz     :     0.021822
      dx2y2   :     0.044974
      dxy     :     0.030567

 23 C s       :     3.177584  s :     3.177584
      pz      :     0.795925  p :     2.628888
      px      :     0.969134
      py      :     0.863828
      dz2     :     0.005308  d :     0.112748
      dxz     :     0.010088
      dyz     :     0.021809
      dx2y2   :     0.045051
      dxy     :     0.030492

 24 N s       :     3.317290  s :     3.317290
      pz      :     1.598259  p :     3.625905
      px      :     1.144775
      py      :     0.882871
      dz2     :     0.007728  d :     0.089542
      dxz     :     0.009311
      dyz     :     0.009630
      dx2y2   :     0.025957
      dxy     :     0.036914

 25 C s       :     3.177625  s :     3.177625
      pz      :     0.795878  p :     2.628884
      px      :     0.969368
      py      :     0.863639
      dz2     :     0.005308  d :     0.112748
      dxz     :     0.010074
      dyz     :     0.021823
      dx2y2   :     0.044976
      dxy     :     0.030567

 26 O s       :     3.852442  s :     3.852442
      pz      :     1.430415  p :     4.493764
      px      :     1.652696
      py      :     1.410654
      dz2     :     0.005119  d :     0.028303
      dxz     :     0.005391
      dyz     :     0.006849
      dx2y2   :     0.002330
      dxy     :     0.008614

 27 O s       :     3.852440  s :     3.852440
      pz      :     1.430404  p :     4.493768
      px      :     1.653438
      py      :     1.409927
      dz2     :     0.005116  d :     0.028299
      dxz     :     0.005382
      dyz     :     0.006863
      dx2y2   :     0.002358
      dxy     :     0.008580

 28 O s       :     3.852442  s :     3.852442
      pz      :     1.430418  p :     4.493765
      px      :     1.652684
      py      :     1.410663
      dz2     :     0.005119  d :     0.028300
      dxz     :     0.005391
      dyz     :     0.006849
      dx2y2   :     0.002329
      dxy     :     0.008611

 29 O s       :     3.852441  s :     3.852441
      pz      :     1.430396  p :     4.493765
      px      :     1.653450
      py      :     1.409920
      dz2     :     0.005116  d :     0.028302
      dxz     :     0.005382
      dyz     :     0.006863
      dx2y2   :     0.002359
      dxy     :     0.008582

 30 H s       :     0.696886  s :     0.696886
      pz      :     0.008497  p :     0.031305
      px      :     0.019393
      py      :     0.003415

 31 H s       :     0.696885  s :     0.696885
      pz      :     0.008498  p :     0.031305
      px      :     0.019393
      py      :     0.003415

 32 H s       :     0.853090  s :     0.853090
      pz      :     0.004041  p :     0.019897
      px      :     0.005342
      py      :     0.010514

 33 H s       :     0.798124  s :     0.798124
      pz      :     0.003516  p :     0.019538
      px      :     0.006201
      py      :     0.009821

 34 H s       :     0.798131  s :     0.798131
      pz      :     0.003516  p :     0.019538
      px      :     0.006187
      py      :     0.009835

 35 H s       :     0.853116  s :     0.853116
      pz      :     0.004042  p :     0.019897
      px      :     0.005354
      py      :     0.010501

 36 H s       :     0.853115  s :     0.853115
      pz      :     0.004040  p :     0.019897
      px      :     0.005342
      py      :     0.010514

 37 H s       :     0.798128  s :     0.798128
      pz      :     0.003516  p :     0.019538
      px      :     0.006201
      py      :     0.009820

 38 H s       :     0.798127  s :     0.798127
      pz      :     0.003516  p :     0.019538
      px      :     0.006187
      py      :     0.009834

 39 H s       :     0.853090  s :     0.853090
      pz      :     0.004043  p :     0.019897
      px      :     0.005354
      py      :     0.010500



                     *******************************
                     * LOEWDIN POPULATION ANALYSIS *
                     *******************************

----------------------
LOEWDIN ATOMIC CHARGES
----------------------
   0 C :   -0.014176
   1 C :   -0.014175
   2 C :   -0.007921
   3 C :   -0.014170
   4 C :   -0.014170
   5 C :   -0.007921
   6 C :   -0.123541
   7 C :   -0.079924
   8 C :   -0.012788
   9 C :    0.008059
  10 C :   -0.012789
  11 C :   -0.079927
  12 C :   -0.123536
  13 C :   -0.123537
  14 C :   -0.079927
  15 C :   -0.012790
  16 C :    0.008059
  17 C :   -0.012788
  18 C :   -0.079924
  19 C :   -0.123541
  20 C :    0.372811
  21 N :   -0.483413
  22 C :    0.372809
  23 C :    0.372810
  24 N :   -0.483412
  25 C :    0.372810
  26 O :   -0.420613
  27 O :   -0.420613
  28 O :   -0.420613
  29 O :   -0.420612
  30 H :    0.295127
  31 H :    0.295127
  32 H :    0.174936
  33 H :    0.197369
  34 H :    0.197368
  35 H :    0.174932
  36 H :    0.174932
  37 H :    0.197368
  38 H :    0.197368
  39 H :    0.174936

-------------------------------
LOEWDIN REDUCED ORBITAL CHARGES
-------------------------------
  0 C s       :     2.843333  s :     2.843333
      pz      :     0.948008  p :     3.071695
      px      :     1.043135
      py      :     1.080552
      dz2     :     0.006726  d :     0.099147
      dxz     :     0.010591
      dyz     :     0.011871
      dx2y2   :     0.035494
      dxy     :     0.034466

  1 C s       :     2.843333  s :     2.843333
      pz      :     0.947986  p :     3.071695
      px      :     1.043161
      py      :     1.080547
      dz2     :     0.006722  d :     0.099147
      dxz     :     0.010587
      dyz     :     0.011867
      dx2y2   :     0.035508
      dxy     :     0.034463

  2 C s       :     2.832068  s :     2.832068
      pz      :     0.979737  p :     3.078454
      px      :     1.047290
      py      :     1.051427
      dz2     :     0.006857  d :     0.097399
      dxz     :     0.009760
      dyz     :     0.010695
      dx2y2   :     0.035252
      dxy     :     0.034835

  3 C s       :     2.843336  s :     2.843336
      pz      :     0.948002  p :     3.071690
      px      :     1.043133
      py      :     1.080555
      dz2     :     0.006724  d :     0.099144
      dxz     :     0.010587
      dyz     :     0.011869
      dx2y2   :     0.035496
      dxy     :     0.034467

  4 C s       :     2.843336  s :     2.843336
      pz      :     0.947992  p :     3.071690
      px      :     1.043159
      py      :     1.080538
      dz2     :     0.006722  d :     0.099144
      dxz     :     0.010586
      dyz     :     0.011866
      dx2y2   :     0.035508
      dxy     :     0.034462

  5 C s       :     2.832068  s :     2.832068
      pz      :     0.979739  p :     3.078454
      px      :     1.047290
      py      :     1.051425
      dz2     :     0.006857  d :     0.097399
      dxz     :     0.009761
      dyz     :     0.010695
      dx2y2   :     0.035252
      dxy     :     0.034835

  6 C s       :     2.891643  s :     2.891643
      pz      :     0.970951  p :     3.150996
      px      :     1.088795
      py      :     1.091251
      dz2     :     0.005536  d :     0.080902
      dxz     :     0.009619
      dyz     :     0.005045
      dx2y2   :     0.028668
      dxy     :     0.032035

  7 C s       :     2.894181  s :     2.894181
      pz      :     0.912474  p :     3.102893
      px      :     1.084658
      py      :     1.105761
      dz2     :     0.005498  d :     0.082850
      dxz     :     0.010809
      dyz     :     0.006223
      dx2y2   :     0.028343
      dxy     :     0.031978

  8 C s       :     2.841906  s :     2.841906
      pz      :     0.988968  p :     3.075372
      px      :     1.008976
      py      :     1.077429
      dz2     :     0.007318  d :     0.095510
      dxz     :     0.006712
      dyz     :     0.012008
      dx2y2   :     0.036919
      dxy     :     0.032552

  9 C s       :     2.828798  s :     2.828798
      pz      :     0.951777  p :     3.060946
      px      :     1.049834
      py      :     1.059334
      dz2     :     0.006932  d :     0.102197
      dxz     :     0.011043
      dyz     :     0.012795
      dx2y2   :     0.035247
      dxy     :     0.036180

 10 C s       :     2.841904  s :     2.841904
      pz      :     0.988971  p :     3.075374
      px      :     1.009011
      py      :     1.077392
      dz2     :     0.007319  d :     0.095511
      dxz     :     0.006713
      dyz     :     0.012008
      dx2y2   :     0.036924
      dxy     :     0.032546

 11 C s       :     2.894180  s :     2.894180
      pz      :     0.912487  p :     3.102896
      px      :     1.084607
      py      :     1.105802
      dz2     :     0.005498  d :     0.082851
      dxz     :     0.010824
      dyz     :     0.006211
      dx2y2   :     0.028346
      dxy     :     0.031972

 12 C s       :     2.891644  s :     2.891644
      pz      :     0.970963  p :     3.150990
      px      :     1.088840
      py      :     1.091187
      dz2     :     0.005536  d :     0.080902
      dxz     :     0.009610
      dyz     :     0.005057
      dx2y2   :     0.028653
      dxy     :     0.032046

 13 C s       :     2.891644  s :     2.891644
      pz      :     0.970948  p :     3.150991
      px      :     1.088795
      py      :     1.091248
      dz2     :     0.005536  d :     0.080902
      dxz     :     0.009620
      dyz     :     0.005045
      dx2y2   :     0.028667
      dxy     :     0.032033

 14 C s       :     2.894180  s :     2.894180
      pz      :     0.912486  p :     3.102896
      px      :     1.084659
      py      :     1.105751
      dz2     :     0.005498  d :     0.082851
      dxz     :     0.010810
      dyz     :     0.006224
      dx2y2   :     0.028342
      dxy     :     0.031977

 15 C s       :     2.841904  s :     2.841904
      pz      :     0.988972  p :     3.075375
      px      :     1.008976
      py      :     1.077427
      dz2     :     0.007318  d :     0.095511
      dxz     :     0.006714
      dyz     :     0.012009
      dx2y2   :     0.036919
      dxy     :     0.032551

 16 C s       :     2.828798  s :     2.828798
      pz      :     0.951783  p :     3.060946
      px      :     1.049834
      py      :     1.059329
      dz2     :     0.006933  d :     0.102197
      dxz     :     0.011044
      dyz     :     0.012795
      dx2y2   :     0.035246
      dxy     :     0.036179

 17 C s       :     2.841906  s :     2.841906
      pz      :     0.988976  p :     3.075372
      px      :     1.009011
      py      :     1.077385
      dz2     :     0.007320  d :     0.095510
      dxz     :     0.006715
      dyz     :     0.012009
      dx2y2   :     0.036922
      dxy     :     0.032544

 18 C s       :     2.894181  s :     2.894181
      pz      :     0.912499  p :     3.102892
      px      :     1.084607
      py      :     1.105787
      dz2     :     0.005499  d :     0.082850
      dxz     :     0.010826
      dyz     :     0.006212
      dx2y2   :     0.028344
      dxy     :     0.031970

 19 C s       :     2.891643  s :     2.891643
      pz      :     0.970983  p :     3.150996
      px      :     1.088840
      py      :     1.091173
      dz2     :     0.005536  d :     0.080902
      dxz     :     0.009612
      dyz     :     0.005059
      dx2y2   :     0.028651
      dxy     :     0.032044

 20 C s       :     2.722892  s :     2.722892
      pz      :     0.744533  p :     2.663094
      px      :     0.974868
      py      :     0.943694
      dz2     :     0.014889  d :     0.241203
      dxz     :     0.016373
      dyz     :     0.040952
      dx2y2   :     0.099214
      dxy     :     0.069775

 21 N s       :     3.111373  s :     3.111373
      pz      :     1.520392  p :     3.918876
      px      :     1.225962
      py      :     1.172522
      dz2     :     0.061846  d :     0.453163
      dxz     :     0.019806
      dyz     :     0.085612
      dx2y2   :     0.155898
      dxy     :     0.130002

 22 C s       :     2.722892  s :     2.722892
      pz      :     0.744531  p :     2.663095
      px      :     0.974786
      py      :     0.943778
      dz2     :     0.014889  d :     0.241204
      dxz     :     0.016347
      dyz     :     0.040979
      dx2y2   :     0.099060
      dxy     :     0.069930

 23 C s       :     2.722892  s :     2.722892
      pz      :     0.744520  p :     2.663095
      px      :     0.974867
      py      :     0.943708
      dz2     :     0.014885  d :     0.241204
      dxz     :     0.016369
      dyz     :     0.040952
      dx2y2   :     0.099218
      dxy     :     0.069779

 24 N s       :     3.111372  s :     3.111372
      pz      :     1.520411  p :     3.918876
      px      :     1.225962
      py      :     1.172502
      dz2     :     0.061844  d :     0.453165
      dxz     :     0.019800
      dyz     :     0.085606
      dx2y2   :     0.155906
      dxy     :     0.130009

 25 C s       :     2.722891  s :     2.722891
      pz      :     0.744519  p :     2.663095
      px      :     0.974788
      py      :     0.943788
      dz2     :     0.014885  d :     0.241204
      dxz     :     0.016344
      dyz     :     0.040977
      dx2y2   :     0.099066
      dxy     :     0.069931

 26 O s       :     3.550719  s :     3.550719
      pz      :     1.421727  p :     4.648820
      px      :     1.684258
      py      :     1.542836
      dz2     :     0.027865  d :     0.221074
      dxz     :     0.019138
      dyz     :     0.036432
      dx2y2   :     0.069163
      dxy     :     0.068476

 27 O s       :     3.550719  s :     3.550719
      pz      :     1.421725  p :     4.648820
      px      :     1.684655
      py      :     1.542439
      dz2     :     0.027864  d :     0.221074
      dxz     :     0.019084
      dyz     :     0.036486
      dx2y2   :     0.069129
      dxy     :     0.068511

 28 O s       :     3.550719  s :     3.550719
      pz      :     1.421732  p :     4.648820
      px      :     1.684255
      py      :     1.542833
      dz2     :     0.027865  d :     0.221074
      dxz     :     0.019142
      dyz     :     0.036434
      dx2y2   :     0.069160
      dxy     :     0.068473

 29 O s       :     3.550718  s :     3.550718
      pz      :     1.421732  p :     4.648820
      px      :     1.684658
      py      :     1.542430
      dz2     :     0.027864  d :     0.221074
      dxz     :     0.019087
      dyz     :     0.036490
      dx2y2   :     0.069125
      dxy     :     0.068508

 30 H s       :     0.621269  s :     0.621269
      pz      :     0.020599  p :     0.083604
      px      :     0.053954
      py      :     0.009051

 31 H s       :     0.621269  s :     0.621269
      pz      :     0.020599  p :     0.083604
      px      :     0.053954
      py      :     0.009050

 32 H s       :     0.779463  s :     0.779463
      pz      :     0.008875  p :     0.045601
      px      :     0.012230
      py      :     0.024496

 33 H s       :     0.756693  s :     0.756693
      pz      :     0.007594  p :     0.045938
      px      :     0.014610
      py      :     0.023734

 34 H s       :     0.756695  s :     0.756695
      pz      :     0.007594  p :     0.045937
      px      :     0.014574
      py      :     0.023769

 35 H s       :     0.779467  s :     0.779467
      pz      :     0.008877  p :     0.045601
      px      :     0.012259
      py      :     0.024465

 36 H s       :     0.779467  s :     0.779467
      pz      :     0.008874  p :     0.045601
      px      :     0.012230
      py      :     0.024496

 37 H s       :     0.756694  s :     0.756694
      pz      :     0.007595  p :     0.045937
      px      :     0.014610
      py      :     0.023733

 38 H s       :     0.756694  s :     0.756694
      pz      :     0.007596  p :     0.045938
      px      :     0.014574
      py      :     0.023768

 39 H s       :     0.779463  s :     0.779463
      pz      :     0.008879  p :     0.045601
      px      :     0.012259
      py      :     0.024463



                      *****************************
                      * MAYER POPULATION ANALYSIS *
                      *****************************

  NA   - Mulliken gross atomic population
  ZA   - Total nuclear charge
  QA   - Mulliken gross atomic charge
  VA   - Mayer's total valence
  BVA  - Mayer's bonded valence
  FA   - Mayer's free valence

  ATOM       NA         ZA         QA         VA         BVA        FA
  0 C      5.8429     6.0000     0.1571     3.1306     3.1306    -0.0000
  1 C      5.8428     6.0000     0.1572     3.1308     3.1308    -0.0000
  2 C      5.9687     6.0000     0.0313     3.0610     3.0610    -0.0000
  3 C      5.8414     6.0000     0.1586     3.1283     3.1283    -0.0000
  4 C      5.8414     6.0000     0.1586     3.1283     3.1283    -0.0000
  5 C      5.9687     6.0000     0.0313     3.0610     3.0610     0.0000
  6 C      6.2336     6.0000    -0.2336     3.4934     3.4934    -0.0000
  7 C      6.2880     6.0000    -0.2880     3.7167     3.7167     0.0000
  8 C      5.9243     6.0000     0.0757     3.2491     3.2491    -0.0000
  9 C      5.7251     6.0000     0.2749     3.0123     3.0123    -0.0000
 10 C      5.9245     6.0000     0.0755     3.2495     3.2495    -0.0000
 11 C      6.2877     6.0000    -0.2877     3.7172     3.7172    -0.0000
 12 C      6.2342     6.0000    -0.2342     3.4929     3.4929     0.0000
 13 C      6.2341     6.0000    -0.2341     3.4930     3.4930    -0.0000
 14 C      6.2877     6.0000    -0.2877     3.7173     3.7173    -0.0000
 15 C      5.9245     6.0000     0.0755     3.2493     3.2493    -0.0000
 16 C      5.7250     6.0000     0.2750     3.0123     3.0123     0.0000
 17 C      5.9244     6.0000     0.0756     3.2492     3.2492    -0.0000
 18 C      6.2880     6.0000    -0.2880     3.7167     3.7167    -0.0000
 19 C      6.2336     6.0000    -0.2336     3.4934     3.4934    -0.0000
 20 C      5.9193     6.0000     0.0807     4.0830     4.0830    -0.0000
 21 N      7.0327     7.0000    -0.0327     3.0251     3.0251    -0.0000
 22 C      5.9192     6.0000     0.0808     4.0831     4.0831    -0.0000
 23 C      5.9192     6.0000     0.0808     4.0831     4.0831    -0.0000
 24 N      7.0327     7.0000    -0.0327     3.0251     3.0251    -0.0000
 25 C      5.9193     6.0000     0.0807     4.0830     4.0830    -0.0000
 26 O      8.3745     8.0000    -0.3745     2.0985     2.0985    -0.0000
 27 O      8.3745     8.0000    -0.3745     2.0985     2.0985    -0.0000
 28 O      8.3745     8.0000    -0.3745     2.0985     2.0985    -0.0000
 29 O      8.3745     8.0000    -0.3745     2.0985     2.0985    -0.0000
 30 H      0.7282     1.0000     0.2718     0.9236     0.9236    -0.0000
 31 H      0.7282     1.0000     0.2718     0.9236     0.9236    -0.0000
 32 H      0.8730     1.0000     0.1270     0.9755     0.9755    -0.0000
 33 H      0.8177     1.0000     0.1823     0.9575     0.9575     0.0000
 34 H      0.8177     1.0000     0.1823     0.9576     0.9576    -0.0000
 35 H      0.8730     1.0000     0.1270     0.9756     0.9756     0.0000
 36 H      0.8730     1.0000     0.1270     0.9756     0.9756    -0.0000
 37 H      0.8177     1.0000     0.1823     0.9576     0.9576    -0.0000
 38 H      0.8177     1.0000     0.1823     0.9575     0.9575    -0.0000
 39 H      0.8730     1.0000     0.1270     0.9755     0.9755    -0.0000

  Mayer bond orders larger than 0.100000
B(  0-C ,  1-C ) :   0.9405 B(  0-C ,  2-C ) :  -0.1011 B(  0-C ,  4-C ) :  -0.1766 
B(  0-C ,  5-C ) :   1.1938 B(  0-C , 19-C ) :   1.3230 B(  1-C ,  2-C ) :   1.1938 
[...]
 77:   1214.93   0.000539    2.72  0.000138  ( 0.000062 -0.011765 -0.000096)
 78:   1216.07   0.002482   12.54  0.000637  (-0.025235 -0.000114  0.000124)
 79:   1220.68   0.000000    0.00  0.000000  (-0.000027 -0.000020  0.000022)
 80:   1263.48   0.000000    0.00  0.000000  ( 0.000007  0.000000 -0.000190)
 81:   1284.60   0.036361  183.75  0.008833  (-0.000042 -0.093982 -0.000728)
 82:   1304.54   0.000000    0.00  0.000000  (-0.000008  0.000028  0.000000)
 83:   1321.15   0.000643    3.25  0.000152  ( 0.000075  0.012322  0.000095)
 84:   1322.60   0.000000    0.00  0.000000  (-0.000022 -0.000200 -0.000002)
 85:   1352.83   0.000122    0.62  0.000028  (-0.000284  0.005301  0.000041)
 86:   1358.56   0.122157  617.33  0.028060  (-0.167510  0.000110 -0.000066)
 87:   1383.81   0.029980  151.51  0.006761  (-0.082224  0.000082  0.000054)
 88:   1389.28   0.000000    0.00  0.000000  ( 0.000055 -0.000002  0.000087)
 89:   1394.12   0.000000    0.00  0.000000  ( 0.000017  0.000006  0.000000)
 90:   1409.03   0.002323   11.74  0.000514  (-0.000021 -0.022680 -0.000169)
 91:   1409.47   0.000000    0.00  0.000000  (-0.000006 -0.000032  0.000002)
 92:   1417.29   0.000000    0.00  0.000000  ( 0.000013  0.000004 -0.000000)
 93:   1427.97   0.013426   67.85  0.002934  (-0.054168  0.000040 -0.000013)
 94:   1460.83   0.024652  124.58  0.005266  (-0.072569  0.000054  0.000035)
 95:   1481.53   0.000000    0.00  0.000000  (-0.000006 -0.000001  0.000000)
 96:   1486.99   0.000000    0.00  0.000000  (-0.000001 -0.000001  0.000012)
 97:   1498.33   0.000243    1.23  0.000051  (-0.000021  0.007114  0.000058)
 98:   1543.05   0.006285   31.76  0.001271  (-0.000017 -0.035652 -0.000276)
 99:   1561.08   0.000000    0.00  0.000000  ( 0.000005  0.000005 -0.000122)
100:   1597.03   0.000000    0.00  0.000000  ( 0.000011  0.000002 -0.000000)
101:   1612.25   0.034773  175.73  0.006730  (-0.082039  0.000061 -0.000146)
102:   1618.96   0.000000    0.00  0.000000  (-0.000024  0.000004 -0.000000)
103:   1625.55   0.000523    2.64  0.000100  ( 0.000162  0.010018  0.000071)
104:   1634.42   0.115209  582.22  0.021997  (-0.148314  0.000121  0.000339)
105:   1644.74   0.000000    0.00  0.000000  ( 0.000012 -0.000000  0.000008)
106:   1739.84   0.000014    0.07  0.000003  ( 0.000259 -0.001518  0.000382)
107:   1740.03   0.196426  992.66  0.035228  ( 0.000100  0.187685  0.001489)
108:   1741.68   0.207445  1048.34  0.037169  ( 0.192792 -0.000105  0.000038)
109:   1746.17   0.000000    0.00  0.000000  ( 0.000085 -0.000076 -0.000001)
110:   3188.96   0.000228    1.15  0.000022  ( 0.004719 -0.000011  0.000044)
111:   3189.07   0.000000    0.00  0.000000  ( 0.000015  0.000002 -0.000012)
112:   3191.90   0.000309    1.56  0.000030  (-0.000002  0.005500  0.000052)
113:   3191.91   0.000000    0.00  0.000000  (-0.000000 -0.000145 -0.000001)
114:   3202.24   0.000000    0.00  0.000000  (-0.000071 -0.000002  0.000012)
115:   3202.39   0.000943    4.77  0.000092  (-0.009587  0.000018 -0.000040)
116:   3214.71   0.000873    4.41  0.000085  ( 0.000024  0.009207  0.000054)
117:   3214.83   0.000043    0.22  0.000004  (-0.000008 -0.002033 -0.000012)
118:   3573.69   0.042198  213.25  0.003685  (-0.060703  0.000048 -0.000018)
119:   3573.83   0.000002    0.01  0.000000  ( 0.000392 -0.000001  0.000000)

* The epsilon (eps) is given for a Dirac delta lineshape.
** The dipole moment derivative (T) already includes vibrational overlap.

The first frequency considered to be a vibration is 6
The total number of vibrations considered is 114


--------------------------
THERMOCHEMISTRY AT 298.15K
--------------------------

Temperature         ...   298.15 K
Pressure            ...     1.00 atm
Total Mass          ...   390.35 AMU
Quasi RRHO          ...     True
Cut-Off Frequency   ...     1.00 cm^-1

Throughout the following assumptions are being made:
  (1) The electronic state is orbitally nondegenerate
  (2) There are no thermally accessible electronically excited states
  (3) Hindered rotations indicated by low frequency modes are not
      treated as such but are treated as vibrations and this may
      cause some error
  (4) All equations used are the standard statistical mechanics
      equations for an ideal gas
  (5) All vibrations are strictly harmonic

freq.       5.36  E(vib)   ...       0.58 
freq.      35.09  E(vib)   ...       0.54 
freq.      73.02  E(vib)   ...       0.49 
freq.      79.62  E(vib)   ...       0.49 
freq.      80.06  E(vib)   ...       0.49 
freq.     131.65  E(vib)   ...       0.42 
freq.     135.36  E(vib)   ...       0.42 
freq.     141.07  E(vib)   ...       0.41 
freq.     165.88  E(vib)   ...       0.39 
freq.     178.37  E(vib)   ...       0.37 
freq.     200.88  E(vib)   ...       0.35 
freq.     232.38  E(vib)   ...       0.32 
freq.     254.87  E(vib)   ...       0.30 
freq.     258.87  E(vib)   ...       0.30 
freq.     292.93  E(vib)   ...       0.27 
freq.     329.17  E(vib)   ...       0.24 
freq.     347.41  E(vib)   ...       0.23 
freq.     371.30  E(vib)   ...       0.21 
freq.     393.59  E(vib)   ...       0.20 
freq.     399.71  E(vib)   ...       0.19 
freq.     428.79  E(vib)   ...       0.18 
freq.     429.22  E(vib)   ...       0.18 
freq.     429.41  E(vib)   ...       0.18 
freq.     430.92  E(vib)   ...       0.18 
freq.     438.04  E(vib)   ...       0.17 
freq.     466.13  E(vib)   ...       0.16 
freq.     479.63  E(vib)   ...       0.15 
freq.     510.63  E(vib)   ...       0.14 
freq.     518.39  E(vib)   ...       0.13 
freq.     522.90  E(vib)   ...       0.13 
freq.     550.62  E(vib)   ...       0.12 
freq.     576.78  E(vib)   ...       0.11 
freq.     586.96  E(vib)   ...       0.10 
freq.     607.81  E(vib)   ...       0.10 
freq.     609.09  E(vib)   ...       0.10 
freq.     609.20  E(vib)   ...       0.10 
freq.     617.08  E(vib)   ...       0.09 
freq.     660.33  E(vib)   ...       0.08 
freq.     671.39  E(vib)   ...       0.08 
freq.     680.39  E(vib)   ...       0.08 
freq.     696.97  E(vib)   ...       0.07 
freq.     700.37  E(vib)   ...       0.07 
freq.     736.84  E(vib)   ...       0.06 
freq.     740.64  E(vib)   ...       0.06 
freq.     745.42  E(vib)   ...       0.06 
freq.     748.11  E(vib)   ...       0.06 
freq.     753.12  E(vib)   ...       0.06 
freq.     756.41  E(vib)   ...       0.06 
freq.     765.54  E(vib)   ...       0.06 
freq.     779.82  E(vib)   ...       0.05 
freq.     816.98  E(vib)   ...       0.05 
freq.     833.48  E(vib)   ...       0.04 
freq.     839.33  E(vib)   ...       0.04 
freq.     842.32  E(vib)   ...       0.04 
freq.     843.70  E(vib)   ...       0.04 
freq.     855.47  E(vib)   ...       0.04 
freq.     855.59  E(vib)   ...       0.04 
freq.     940.26  E(vib)   ...       0.03 
freq.     964.52  E(vib)   ...       0.03 
freq.     974.87  E(vib)   ...       0.03 
freq.     977.22  E(vib)   ...       0.03 
freq.     983.61  E(vib)   ...       0.02 
freq.     986.63  E(vib)   ...       0.02 
freq.    1060.00  E(vib)   ...       0.02 
freq.    1083.02  E(vib)   ...       0.02 
freq.    1129.65  E(vib)   ...       0.01 
freq.    1134.51  E(vib)   ...       0.01 
freq.    1158.30  E(vib)   ...       0.01 
freq.    1204.32  E(vib)   ...       0.01 
freq.    1204.83  E(vib)   ...       0.01 
freq.    1208.52  E(vib)   ...       0.01 
freq.    1214.93  E(vib)   ...       0.01 
freq.    1216.07  E(vib)   ...       0.01 
freq.    1220.68  E(vib)   ...       0.01 
freq.    1263.48  E(vib)   ...       0.01 
freq.    1284.60  E(vib)   ...       0.01 
freq.    1304.54  E(vib)   ...       0.01 
freq.    1321.15  E(vib)   ...       0.01 
freq.    1322.60  E(vib)   ...       0.01 
freq.    1352.83  E(vib)   ...       0.01 
freq.    1358.56  E(vib)   ...       0.01 
freq.    1383.81  E(vib)   ...       0.00 
freq.    1389.28  E(vib)   ...       0.00 
freq.    1394.12  E(vib)   ...       0.00 
freq.    1409.03  E(vib)   ...       0.00 
freq.    1409.47  E(vib)   ...       0.00 
freq.    1417.29  E(vib)   ...       0.00 
freq.    1427.97  E(vib)   ...       0.00 
freq.    1460.83  E(vib)   ...       0.00 
freq.    1481.53  E(vib)   ...       0.00 
freq.    1486.99  E(vib)   ...       0.00 
freq.    1498.33  E(vib)   ...       0.00 
freq.    1543.05  E(vib)   ...       0.00 
freq.    1561.08  E(vib)   ...       0.00 
freq.    1597.03  E(vib)   ...       0.00 
freq.    1612.25  E(vib)   ...       0.00 
freq.    1618.96  E(vib)   ...       0.00 
freq.    1625.55  E(vib)   ...       0.00 
freq.    1634.42  E(vib)   ...       0.00 
freq.    1644.74  E(vib)   ...       0.00 
freq.    1739.84  E(vib)   ...       0.00 
freq.    1740.03  E(vib)   ...       0.00 
freq.    1741.68  E(vib)   ...       0.00 
freq.    1746.17  E(vib)   ...       0.00 
freq.    3188.96  E(vib)   ...       0.00 
freq.    3189.07  E(vib)   ...       0.00 
freq.    3191.90  E(vib)   ...       0.00 
freq.    3191.91  E(vib)   ...       0.00 
freq.    3202.24  E(vib)   ...       0.00 
freq.    3202.39  E(vib)   ...       0.00 
freq.    3214.71  E(vib)   ...       0.00 
freq.    3214.83  E(vib)   ...       0.00 
freq.    3573.69  E(vib)   ...       0.00 
freq.    3573.83  E(vib)   ...       0.00 

------------
INNER ENERGY
------------

The inner energy is: U= E(el) + E(ZPE) + E(vib) + E(rot) + E(trans)
    E(el)   - is the total energy from the electronic structure calculation
              = E(kin-el) + E(nuc-el) + E(el-el) + E(nuc-nuc)
    E(ZPE)  - the the zero temperature vibrational energy from the frequency calculation
    E(vib)  - the the finite temperature correction to E(ZPE) due to population
              of excited vibrational states
    E(rot)  - is the rotational thermal energy
    E(trans)- is the translational thermal energy

Summary of contributions to the inner energy U:
Electronic energy                ...  -1330.91117661 Eh
Zero point energy                ...      0.28344292 Eh     177.86 kcal/mol
Thermal vibrational correction   ...      0.01765003 Eh      11.08 kcal/mol
Thermal rotational correction    ...      0.00141627 Eh       0.89 kcal/mol
Thermal translational correction ...      0.00141627 Eh       0.89 kcal/mol
-----------------------------------------------------------------------
Total thermal energy                  -1330.60725111 Eh


Summary of corrections to the electronic energy:
(perhaps to be used in another calculation)
Total thermal correction                  0.02048258 Eh      12.85 kcal/mol
Non-thermal (ZPE) correction              0.28344292 Eh     177.86 kcal/mol
-----------------------------------------------------------------------
Total correction                          0.30392550 Eh     190.72 kcal/mol


--------
ENTHALPY
--------

The enthalpy is H = U + kB*T
                kB is Boltzmann's constant
Total thermal energy              ...  -1330.60725111 Eh 
Thermal Enthalpy correction       ...      0.00094421 Eh       0.59 kcal/mol
-----------------------------------------------------------------------
Total Enthalpy                    ...  -1330.60630690 Eh


Note: Only C1 symmetry has been detected, increase convergence thresholds 
      if your molecule has a higher symmetry. Symmetry factor of 1.0 is   
      used for the rotational entropy correction. 
 

Note: Rotational entropy computed according to Herzberg 
Infrared and Raman Spectra, Chapter V,1, Van Nostrand Reinhold, 1945 
Point Group:  C1, Symmetry Number:   1  
Rotational constants in cm-1:     0.013964     0.002953     0.002437 

Vibrational entropy computed according to the QRRHO of S. Grimme
Chem.Eur.J. 2012 18 9955 using a reference frequency of 100.0 cm-1


-------
ENTROPY
-------

The entropy contributions are T*S = T*(S(el)+S(vib)+S(rot)+S(trans))
     S(el)   - electronic entropy
     S(vib)  - vibrational entropy
     S(rot)  - rotational entropy
     S(trans)- translational entropy
The entropies will be listed as multiplied by the temperature to get
units of energy

Electronic entropy                ...      0.00000000 Eh      0.00 kcal/mol
Vibrational entropy               ...      0.03063291 Eh     19.22 kcal/mol
Rotational entropy                ...      0.01711767 Eh     10.74 kcal/mol
Translational entropy             ...      0.02080004 Eh     13.05 kcal/mol
-----------------------------------------------------------------------
Final entropy term                ...      0.06855062 Eh     43.02 kcal/mol

In case the symmetry of your molecule has not been determined correctly
or in case you have a reason to use a different symmetry number we print 
out the resulting rotational entropy values for sn=1,12:

 non-linear molecules -----------------------------------
|  sn= 1 | S(rot)=       0.01711767 Eh     10.74 kcal/mol|
|  sn= 2 | S(rot)=       0.01646321 Eh     10.33 kcal/mol|
|  sn= 3 | S(rot)=       0.01608038 Eh     10.09 kcal/mol|
|  sn= 4 | S(rot)=       0.01580876 Eh      9.92 kcal/mol|
|  sn= 5 | S(rot)=       0.01559807 Eh      9.79 kcal/mol|
|  sn= 6 | S(rot)=       0.01542593 Eh      9.68 kcal/mol|
|  sn= 7 | S(rot)=       0.01528038 Eh      9.59 kcal/mol|
|  sn= 8 | S(rot)=       0.01515430 Eh      9.51 kcal/mol|
|  sn= 9 | S(rot)=       0.01504309 Eh      9.44 kcal/mol|
|  sn=10 | S(rot)=       0.01494361 Eh      9.38 kcal/mol|
|  sn=11 | S(rot)=       0.01485362 Eh      9.32 kcal/mol|
|  sn=12 | S(rot)=       0.01477147 Eh      9.27 kcal/mol|
 linear molecules ---------------------------------------
|  Dinfh | S(rot)=       0.01100679 Eh      6.91 kcal/mol|
|  Cinfv | S(rot)=       0.01166124 Eh      7.32 kcal/mol|
 --------------------------------------------------------


-------------------
GIBBS FREE ENERGY
-------------------

The Gibbs free energy is G = H - T*S

Total enthalpy                    ...  -1330.60630690 Eh 
Total entropy correction          ...     -0.06855062 Eh    -43.02 kcal/mol
-----------------------------------------------------------------------
Final Gibbs free energy         ...  -1330.67485752 Eh

For completeness - the Gibbs free energy minus the electronic energy
G-E(el)                           ...      0.23631909 Eh    148.29 kcal/mol


Maximum memory used throughout the entire PROP-calculation: 96.8 MB

--------------------------------
SUGGESTED CITATIONS FOR THIS RUN
--------------------------------

Below you find a list of papers that are relevant to this ORCA run
We neither can nor want to force you to cite these papers, but we appreciate if you do
You receive ORCA, which is the product of decades of hard work by many enthusiastic individuals, for free
The only thing we kindly ask in return is that you cite our papers,
We deeply appreciate it, if you show your appreciation for ORCA by not just citing the generic ORCA reference.

Please note that relegating all ORCA citations to the supporting information does *not* help us.
SI sections are not indexed - citations you put there will not count into any citation statistics
But we need these citations in order to attract the funding resources that allow us to do what we are doing

Therefore, if you are a happy ORCA user, please consider citing a few of the papers listed below in the main body of your paper

In addition to the list printed below, the program has created the file pdi_freq.bibtex that contains the list in bibtex format
You can import this file easily into all common literature databanks and citation aid programs

It goes without saying that in many instances, there are alternative algorithms to achieve similar
results as the ones you have gotten from ORCA. It is, of course, also the case that in some instances
ORCA just re-implements algorithms worked out by others. We are fully aware of that and we are also
fully appreciative of our colleagues work. Hence this citation list should not be read as indicating
that the listed papers, which are focused on our own work, are the only ones worth citing. It simply
meant to make it easier for users to cite ORCA specific papers. It is not a substitute for doing your
own literature research and citing the relevant literature in a scientifically appropriate manner.

List of essential papers. We consider these as the minimum necessary citations

  1. Grimme, S.; Hansen, A.; Ehlert, S.; Mewes, J.
     r2SCAN-3c: A 'Swiss army knife' composite electronic-structure method
     J. Chem. Phys. 2021 154 , 064103
     doi.org/10.1063/5.0040021
  2. Neese, F.
     Software update: the ORCA program system, version 6.0
     WIRES Comput. Molec. Sci. 2025 15(1), e70019
     doi.org/10.1002/wcms.70019

List of papers to cite with high priority. The work reported in these papers was absolutely
necessary for this run to complete.
Our perspective: the developers of density functionals and basis sets usually get cited in chemistry papers
Good! But without the algorithms to do something with them, the functionals or basis sets would not do anything.
Hence, in our opinion, the algorithm design and method developments papers are equally worthy of getting cited

  1. Neese, F.
     An improvement of the resolution of the identity approximation for the formation of the Coulomb matrix
     J. Comp. Chem. 2003 24(14), 1740-1747
     doi.org/10.1002/jcc.10318
  2. Bykov, D.; Petrenko, T.; Izsak, R.; Kossmann, S.; Becker, U.; Valeev, E.; Neese, F.
     Efficient implementation of the analytic second derivatives of Hartree-Fock and hybrid DFT energies: a detailed analysis of different approximations
     Molec. Phys. 2015 113 , 1961-1977
     doi.org/10.1080/00268976.2015.1025114
  3. Caldeweyher, E.; Bannwarth, C.; Grimme, S.
     Extension of the D3 dispersion coefficient model
     J. Chem. Phys. 2017 147 , 034112
     doi.org/10.1063/1.4993215
  4. Lehtola, S.; Steigemann, C.; Oliveira, M.; Marques, M.
     Recent developments in Libxc - A comprehensive library of functionals for density functional theory
     Software X 2018 7 , 
     doi.org/10.1016/j.softx.2017.11.002
  5. Caldeweyher, E.; Ehlert, S.; Hansen, A.; Neugebauer, H.; Spicher, S.; Bannwarth, C.; Grimme, S.
     A generally applicable atomic-charge dependent London dispersion correction
     J. Chem. Phys. 2019 150 , 154122
     doi.org/10.1063/1.5090222
  6. Neese, F.
     The SHARK Integral Generation and Digestion System
     J. Comp. Chem. 2022 44(3), 381
     doi.org/10.1002/jcc.26942

List of suggested additional citations. These are papers that are important in the 'surrounding' of 
of this run, or papers that preceded the highly important papers. If you like your results we are grateful for a citation.

  1. Neese, F.
     The ORCA program system
     WIRES Comput. Molec. Sci. 2012 2(1), 73-78
     doi.org/10.1002/wcms.81
  2. Neese, F.
     Software update: the ORCA program system, version 4.0
     WIRES Comput. Molec. Sci. 2018 8(1), 1-6
     doi.org/10.1002/wcms.1327
  3. Neese, F.; Wennmohs, F.; Becker, U.; Riplinger, C.
     The ORCA quantum chemistry program package
     J. Chem. Phys. 2020 152(22), 224108
     doi.org/10.1063/5.0004608
  4. Neese, F.
     Software update: The ORCA program system—Version 5.0
     WIRES Comput. Molec. Sci. 2022 12(1), e1606
     doi.org/10.1002/wcms.1606

List of optional additional citations

  1. Neese, F.
     Approximate second-order SCF convergence for spin unrestricted wavefunctions
     Chem. Phys. Lett. 2000 325(1-3), 93-98
     doi.org/10.1016/s0009-2614(00)00662-x

Timings for individual modules:

Sum of individual times          ...     1293.768 sec (=  21.563 min)
Startup calculation              ...        2.131 sec (=   0.036 min)   0.2 %
SCF iterations                   ...       29.346 sec (=   0.489 min)   2.3 %
Property integrals               ...      639.670 sec (=  10.661 min)  49.4 %
SCF Response                     ...      469.935 sec (=   7.832 min)  36.3 %
Property calculations            ...      152.686 sec (=   2.545 min)  11.8 %
                             ****ORCA TERMINATED NORMALLY****
TOTAL RUN TIME: 0 days 0 hours 21 minutes 34 seconds 364 msec
