
                                 *****************
                                 * O   R   C   A *
                                 *****************

                                            #,                                       
                                            ###                                      
                                            ####                                     
                                            #####                                    
                                            ######                                   
                                           ########,                                 
                                     ,,################,,,,,                         
                               ,,#################################,,                 
                          ,,##########################################,,             
                       ,#########################################, ''#####,          
                    ,#############################################,,   '####,        
                  ,##################################################,,,,####,       
                ,###########''''           ''''###############################       
              ,#####''   ,,,,##########,,,,          '''####'''          '####       
            ,##' ,,,,###########################,,,                        '##       
           ' ,,###''''                  '''############,,,                           
         ,,##''                                '''############,,,,        ,,,,,,###''
      ,#''                                            '''#######################'''  
     '                                                          ''''####''''         
             ,#######,   #######,   ,#######,      ##                                
            ,#'     '#,  ##    ##  ,#'     '#,    #''#        ,####,    ,#,          
            ##       ##  ##   ,#'  ##            #'  '#       #'       ,# #          
            ##       ##  #######   ##           ,######,      #####,      #          
            '#,     ,#'  ##    ##  '#,     ,#' ,#      #,     #,   #      #          
             '#######'   ##     ##  '#######'  #'      '#     '####' #    #          



                #########################################################
                #                        -***-                          #
                #          Department of theory and spectroscopy        #
                #                                                       #
                #                      Frank Neese                      #
                #                                                       #
                #     Directorship, Architecture, Infrastructure        #
                #                    SHARK, DRIVERS                     #
                #        Core code/Algorithms in most modules           #
                #                                                       #
                #        Max Planck Institute fuer Kohlenforschung      #
                #                Kaiser Wilhelm Platz 1                 #
                #                 D-45470 Muelheim/Ruhr                 #
                #                      Germany                          #
                #                                                       #
                #                  All rights reserved                  #
                #                        -***-                          #
                #########################################################


                         Program Version 6.1.1  -  RELEASE   -
                                (GIT: $487d211cc3$)
                          ($2025-11-21 10:33:24 +0100$)


 With contributions from (in alphabetic order):
[Max-Planck-Institut fuer Kohlenforschung]                               
  Daniel Aravena         : Magnetic Suceptibility                        
  Michael Atanasov       : Ab Initio Ligand Field Theory (pilot matlab implementation)
  Alexander A. Auer      : GIAO ZORA, VPT2 properties, NMR spectrum      
  Ute Becker             : All parallelization in ORCA, NUMFREQ, NUMCALC 
  Giovanni Bistoni       : ED, misc. LED, open-shell LED, HFLD           
  Dmytro Bykov           : pre 5.0 version of the SCF Hessian            
  Marcos Casanova-Páez   : Triplet and SCS-CIS(D). UHF-(DLPNO)-IP/EA/STEOM-CCSD. UHF-CVS-IP/STEOM-CCSD   
  Vijay G. Chilkuri      : MRCI spin determinant printing, contributions to CSF-ICE 
  Pauline Colinet        : FMM embedding                                 
  Dipayan Datta          : RHF DLPNO-CCSD density                        
  Achintya Kumar Dutta   : EOM-CC, STEOM-CC                              
  Nicolas Foglia         : Exact transition moments, OPA infrastructure, MCD improvements    
  Dmitry Ganyushin       : Spin-Orbit,Spin-Spin,Magnetic field MRCI      
  Miquel Garcia-Rates    : C-PCM and meta-GGA Hessian, CCSD/C-PCM, Gaussian charge scheme 
  Tiago L. C. Gouveia    : GS-ROHF, GS-ROCIS                             
  Yang Guo               : DLPNO-NEVPT2, F12-NEVPT2, CIM, IAO-localization        
  Andreas Hansen         : Spin unrestricted coupled pair/coupled cluster methods 
  Ingolf Harden          : AUTO-CI MPn and infrastructure                
  Benjamin Helmich-Paris : MC-RPA, TRAH-(SCF,CASSCF), AVAS, COSX integrals, SCF dyn. polar., MC-PDFT, srDFT 
  Lee Huntington         : MR-EOM, pCC                                   
  Robert Izsak           : Overlap fitted RIJCOSX, COSX-SCS-MP3, EOM     
  Riya Kayal             : Wick's Theorem for AUTO-CI, AUTO-CI UHF-CCSDT 
  Emily Kempfer          : AUTO-CI RHF CISDT and CCSDT, approximate NEVPT4
  Christian Kollmar      : KDIIS, OOCD, Brueckner-CCSD(T), CCSD density, CASPT2, CASPT2-K, improved NEVPT2 
  Axel Koslowski         : Symmetry handling                             
  Simone Kossmann        : meta-GGA functionals, TD-DFT gradient, OOMP2, (MP2 Hessian; deprecated post 5.0) 
  Lucas Lang             : DCDCAS, Hyperfine gauge corrections, ICE-SOC+SSC
  Marvin Lechner         : AUTO-CI (C++ implementation), FIC-MRCC        
  Spencer Leger          : CASSCF response                               
  Dagmar Lenk            : GEPOL surface, SMD, ORCA-2-JSON               
  Dimitrios Liakos       : Extrapolation schemes; Compound Job, Property file
  Dimitrios Manganas     : Further ROCIS development; embedding schemes. LFT, Crystal Embedding 
  Dimitrios Pantazis     : SARC Basis sets                               
  Anastasios Papadopoulos: AUTO-CI, single reference methods and gradients 
  Taras Petrenko         : pre 6.0 DFT Hessian and TD-DFT gradient,  ECA, NRVS 
  Petra Pikulova         : Analytic Raman intensities                    
  Peter Pinski           : DLPNO-MP2, DLPNO-MP2 Gradient                 
  Shashank Vittal Rao    : ES-AILFT, MagRelax                            
  Christoph Reimann      : Effective Core Potentials                     
  Marius Retegan         : Local ZFS, SOC                                
  Christoph Riplinger    : Optimizer, TS searches, QM/MM, DLPNO-CCSD(T), (RO)-DLPNO pert. Triples 
  Michael Roemelt        : Original ROCIS implementation, recursive CI coupling coefficients
  Masaaki Saitow         : Open-shell DLPNO-CCSD energy and density      
  Barbara Sandhoefer     : DKH picture change effects                    
  Yorick L. A. Schmerwitz: GMF and freeze-and-release deltaSCF, NEB S-IDPP initial path                    
  Kantharuban Sivalingam : CASSCF convergence/infrastructure, NEVPT2, NEVPT3, NEVPT4(SD), FIC-MRCI and CEPA variants
  Bernardo de Souza      : ESD, SOC TD-DFT                               
  Georgi L. Stoychev     : AutoAux, RI-MP2 NMR, DLPNO-MP2 response, X2C  
  Van Anh Tran           : RI-MP2 g-tensors                              
  Willem Van den Heuvel  : Paramagnetic NMR                              
  Zikuan Wang            : NOTCH, Electric field optimization            
  Frank Wennmohs         : Technical directorship and infrastructure     
  Hang Xu                : AUTO-CI-Response properties                   
                                                                         
[FACCTs GmbH]                                                            
  Markus Bursch, Nicolas Foglia, Miquel Garcia-Rates, Ingolf Harden, Hagen Neugebauer, Anastasios Papadopoulos, 
  Christoph Riplinger, Bernardo de Souza, Georgi L. Stoychev                                                    
                                                                 
  APM, various basis sets, CI-OPT, improved COSX, DLPNO-Multilevel,           
  DOCKER, DRACO, updates on ESD, Fragmentator, GOAT, IRC, LR-CPCM, L-BFGS, MBIS, meta-GGA TD-DFT gradient, ML-optimized integration grids, 
  MM, NACMEs, nearIR, NEB, NEB-TS, NL-DFT gradient (VV10), 2- and 3-layer-ONIOM, interface openCOSMO-RS, QMMM,   
  Crystal-QMMM, RESP, rigid body optimization, SF, symmetry and pop. for TD-DFT, various functionals, SOLVATOR                                   
                                                                         
[Other institutions]                                                     
  V. Asgeirsson          : NEB                                           
  Christoph Bannwarth    : sTDA-DFT, sTD-DFT, PBEh-3c, B97-3c, D3        
  Giovanni Bistoni       : ETS/NOCV, ADLD/ADEX, COVALED                  
  Martin Brehm           : Molecular dynamics                            
  Ronald Cardenas        : ETS/NOCV                                      
  Martina Colucci        : COVALED                                       
  Sebastian Ehlert       : rSCAN, r2SCAN, r2SCAN-3c, D4, dhf basis sets  
  Marvin Friede          : D4 for Fr, Ra, Ac-Lr                          
  Lars Goerigk           : TD-DFT with DH, B97 family of functionals     
  Stefan Grimme          : VdW corrections, initial TS optimization, DFT functionals, gCP, sTDA/sTD-DF 
  Waldemar Hujo          : DFT-NL                                        
  H. Jonsson             : NEB                                           
  Holger Kruse           : gCP                                           
  Marcel Mueller         : wB97X-3c, vDZP basis set                      
  Hagen Neugebauer       : wr2SCAN, Native XTB                           
  Gianluca Regni         : ADLD/ADEX                                     
  Tobias Risthaus        : pre 6.0 range-separated hybrid DFT and stability analysis
  Lukas Wittmann         : regularized MP2, r2SCAN double-hybrids, wr2SCAN        
                                                                         
We gratefully acknowledge several colleagues who have allowed us to      
interface, adapt or use parts of their codes:                            
  Ed Valeev, F. Pavosevic, A. Kumar             : LibInt (2-el integral package), F12 methods 
  Garnet Chan, S. Sharma, J. Yang, R. Olivares  : DMRG                   
  Ulf Ekstrom                                   : XCFun DFT Library      
  Mihaly Kallay                                 : mrcc  (arbitrary order and MRCC methods)
  Frank Weinhold                                : gennbo (NPA and NBO analysis)           
  Simon Mueller                                 : openCOSMO-RS                            
  Christopher J. Cramer and Donald G. Truhlar   : smd solvation model                     
  S Lehtola, MJT Oliveira, MAL Marques          : LibXC Library                           
  Liviu Ungur et al                             : ANISO software                          


 Your calculation uses the libint2 library for the computation of 2-el integrals
 For citations please refer to: http://libint.valeyev.net

 Your ORCA version has been built with support for libXC version: 7.0.0
 For citations please refer to: https://libxc.gitlab.io

 This ORCA versions uses:
   CBLAS   interface :  Fast vector & matrix operations
   LAPACKE interface :  Fast linear algebra routines
   SCALAPACK package :  Parallel linear algebra routines
   Shared memory     :  Shared parallel matrices


  ***********************************
  * Starting time: Mon Jul 13 22:34:39 2026
  * Host name:     Angzes-MacBook-Pro.local
  * Process ID:    89625
  * Working dir.:  /Users/liangze/Desktop/Tsinghua 2026 Summer/pdi_h2o2_production/pdi-theory-demo/calculations/pdi_terminal_functionalized/geometry_optimization
  ***********************************

NOTE: MaxCore=8000 MB was set to SCF,MP2,MDCI,CIPSI,MRCI,RASCI and CIS
      => If you want to overwrite this, your respective input block should be placed after the MaxCore statement


***************************************
The coordinates will be read from file: pdi_terminal_functionalized_opt.xyz
***************************************


Your calculation utilizes the geometrical counterpoise correction gCP
Please cite in your paper:
H.Kruse, S. Grimme J.Chem.Phys., 136, (2012), 154101 
   

Your calculation utilizes the atom-pairwise dispersion correction
based on EEQ partial charges (D4)


================================================================================

----- Orbital basis set information -----
Your calculation utilizes the basis: def2-mTZVPP
   Stefan Grimme, Andreas Hansen, Sebastian Ehlert, and Jan-Michael Mewes 
   J. Chem. Phys. 154, 064103 (2021). DOI: 10.1063/5.0040021

----- AuxJ basis set information -----
Your calculation utilizes the basis: def2-mTZVPP/J
   Stefan Grimme, Andreas Hansen, Sebastian Ehlert, and Jan-Michael Mewes 
   J. Chem. Phys. 154, 000000 (2021). DOI: 10.1063/5.0040021

================================================================================
                                        WARNINGS
                       Please study these warnings very carefully!
================================================================================



WARNING: SCAN, rSCAN, or r2SCAN functional requested.
  ===> : libXC variant has now been activated.



================================================================================
                                       INPUT FILE
================================================================================
NAME = pdi_terminal_functionalized_freq.inp
|  1> ! r2SCAN-3c Freq TightSCF NoSym
|  2> 
|  3> %pal
|  4>   nprocs 4
|  5> end
|  6> 
|  7> %maxcore 8000
|  8> 
|  9> * xyzfile 0 1 pdi_terminal_functionalized_opt.xyz
| 10> 
| 11>                          ****END OF INPUT****
================================================================================

                       ****************************
                       * Single Point Calculation *
                       ****************************

---------------------------------
CARTESIAN COORDINATES (ANGSTROEM)
---------------------------------
  C     -0.740611    1.228664   -0.174338
  C      0.720267    1.235625   -0.197016
  C      1.419547   -0.005865   -0.189316
  C      0.731920   -1.253758   -0.199480
  C     -0.729115   -1.260678   -0.189914
  C     -1.428317   -0.019109   -0.190504
  C      1.461349    2.417454   -0.205404
  C      2.853414    2.413577   -0.213641
  C      3.550922    1.219905   -0.211504
  C      2.845193    0.000815   -0.206771
  C      3.563065   -1.211222   -0.206377
  C      2.876364   -2.411462   -0.202680
  C      1.484440   -2.428383   -0.198100
  C     -1.470357   -2.442415   -0.200020
  C     -2.862437   -2.438464   -0.195501
  C     -3.559829   -1.244785   -0.182994
  C     -2.853968   -0.025802   -0.173590
  C     -3.571704    1.186249   -0.160287
  C     -2.884886    2.386374   -0.149390
  C     -1.492977    2.403245   -0.157379
  C     -5.037874   -1.271261   -0.176462
  N     -5.702826   -0.043027   -0.162936
  C     -5.049327    1.200432   -0.152170
  C      5.028958    1.246456   -0.220424
  N      5.694032    0.018211   -0.221855
  C      5.040688   -1.225348   -0.213920
  O      5.645226    2.303068   -0.227063
  O      5.663158   -2.277699   -0.212807
  O     -5.654272   -2.327797   -0.183006
  O     -5.671677    2.252749   -0.137358
  C     -7.195398   -0.033012   -0.158232
  C      7.186597    0.008309   -0.228834
  C     -7.777902   -0.636167   -1.441149
  C     -7.770066   -0.658240    1.117657
  C     -7.171387   -0.078357    2.396731
  C     -7.183671   -0.037240   -2.713542
  C      7.759736    0.623336   -1.510355
  C      7.770492    0.621862    1.048500
  C      7.155210    0.037410   -2.783919
  C      7.182329    0.028844    2.326461
  H      0.959515    3.377475   -0.210185
  H      3.412752    3.343543   -0.220625
  H      3.443934   -3.336355   -0.202679
  H      0.992044   -3.393279   -0.197150
  H     -0.968710   -3.402505   -0.208295
  H     -3.421870   -3.368370   -0.202517
  H     -3.452360    3.311225   -0.135776
  H     -1.000392    3.367978   -0.145657
  H     -7.438534    1.033813   -0.148377
  H      7.429861   -1.058529   -0.230540
  H     -8.856813   -0.435115   -1.409449
  H     -7.654576   -1.723138   -1.435074
  H     -7.643512   -1.744586    1.093131
  H     -8.849734   -0.460090    1.094444
  H     -6.110434   -0.334290    2.493218
  H     -7.683462   -0.473676    3.279235
  H     -7.254314    1.014254    2.415789
  H     -7.259790    1.056064   -2.712278
  H     -7.704020   -0.413039   -3.599733
  H     -6.125050   -0.298067   -2.821522
  H      8.838657    0.420993   -1.488964
  H      7.637434    1.710293   -1.492771
  H      7.642569    1.708252    1.035480
  H      8.850171    0.425246    1.014982
  H      7.230899   -1.055883   -2.794412
  H      7.668732    0.421963   -3.670340
  H      6.095881    0.299675   -2.880960
  H      6.122059    0.283216    2.433940
  H      7.701249    0.415512    3.208797
  H      7.265898   -1.063852    2.333715

----------------------------
CARTESIAN COORDINATES (A.U.)
----------------------------
  NO LB      ZA    FRAG     MASS         X           Y           Z
   0 C     6.0000    0    12.011   -1.399553    2.321839   -0.329450
   1 C     6.0000    0    12.011    1.361107    2.334993   -0.372306
   2 C     6.0000    0    12.011    2.682554   -0.011083   -0.357755
   3 C     6.0000    0    12.011    1.383129   -2.369260   -0.376963
   4 C     6.0000    0    12.011   -1.377827   -2.382336   -0.358885
   5 C     6.0000    0    12.011   -2.699127   -0.036110   -0.360001
   6 C     6.0000    0    12.011    2.761550    4.568327   -0.388157
   7 C     6.0000    0    12.011    5.392172    4.561000   -0.403722
   8 C     6.0000    0    12.011    6.710271    2.305286   -0.399684
   9 C     6.0000    0    12.011    5.376636    0.001541   -0.390740
  10 C     6.0000    0    12.011    6.733218   -2.288878   -0.389997
  11 C     6.0000    0    12.011    5.435541   -4.557004   -0.383009
  12 C     6.0000    0    12.011    2.805185   -4.588978   -0.374354
  13 C     6.0000    0    12.011   -2.778573   -4.615496   -0.377983
  14 C     6.0000    0    12.011   -5.409222   -4.608030   -0.369444
  15 C     6.0000    0    12.011   -6.727103   -2.352303   -0.345808
  16 C     6.0000    0    12.011   -5.393219   -0.048759   -0.328037
  17 C     6.0000    0    12.011   -6.749542    2.241685   -0.302898
  18 C     6.0000    0    12.011   -5.451645    4.509593   -0.282307
  19 C     6.0000    0    12.011   -2.821318    4.541475   -0.297403
  20 C     6.0000    0    12.011   -9.520202   -2.402336   -0.333466
  21 N     7.0000    0    14.007  -10.776779   -0.081310   -0.307905
  22 C     6.0000    0    12.011   -9.541846    2.268487   -0.287559
  23 C     6.0000    0    12.011    9.503353    2.355461   -0.416542
  24 N     7.0000    0    14.007   10.760161    0.034414   -0.419245
  25 C     6.0000    0    12.011    9.525519   -2.315572   -0.404250
  26 O     8.0000    0    15.999   10.667932    4.352168   -0.429086
  27 O     8.0000    0    15.999   10.701817   -4.304227   -0.402147
  28 O     8.0000    0    15.999  -10.685027   -4.398899   -0.345831
  29 O     8.0000    0    15.999  -10.717916    4.257079   -0.259568
  30 C     6.0000    0    12.011  -13.597331   -0.062383   -0.299016
  31 C     6.0000    0    12.011   13.580701    0.015701   -0.432434
  32 C     6.0000    0    12.011  -14.698105   -1.202182   -2.723376
  33 C     6.0000    0    12.011  -14.683297   -1.243894    2.112066
  34 C     6.0000    0    12.011  -13.551958   -0.148073    4.529165
  35 C     6.0000    0    12.011  -13.575171   -0.070373   -5.127852
  36 C     6.0000    0    12.011   14.663776    1.177934   -2.854158
  37 C     6.0000    0    12.011   14.684101    1.175148    1.981377
  38 C     6.0000    0    12.011   13.521387    0.070695   -5.260845
  39 C     6.0000    0    12.011   13.572634    0.054507    4.396374
  40 H     1.0000    0     1.008    1.813221    6.382503   -0.397192
  41 H     1.0000    0     1.008    6.449167    6.318381   -0.416921
  42 H     1.0000    0     1.008    6.508092   -6.304798   -0.383008
  43 H     1.0000    0     1.008    1.874691   -6.412369   -0.372559
  44 H     1.0000    0     1.008   -1.830596   -6.429803   -0.393621
  45 H     1.0000    0     1.008   -6.466397   -6.365298   -0.382701
  46 H     1.0000    0     1.008   -6.524014    6.257309   -0.256579
  47 H     1.0000    0     1.008   -1.890466    6.364556   -0.275251
  48 H     1.0000    0     1.008  -14.056792    1.953623   -0.280391
  49 H     1.0000    0     1.008   14.040403   -2.000331   -0.435658
  50 H     1.0000    0     1.008  -16.736951   -0.822248   -2.663473
  51 H     1.0000    0     1.008  -14.465052   -3.256259   -2.711897
  52 H     1.0000    0     1.008  -14.444145   -3.296790    2.065718
  53 H     1.0000    0     1.008  -16.723573   -0.869445    2.068200
  54 H     1.0000    0     1.008  -11.547047   -0.631716    4.711499
  55 H     1.0000    0     1.008  -14.519639   -0.895118    6.196856
  56 H     1.0000    0     1.008  -13.708667    1.916663    4.565180
  57 H     1.0000    0     1.008  -13.719014    1.995671   -5.125462
  58 H     1.0000    0     1.008  -14.558488   -0.780531   -6.802510
  59 H     1.0000    0     1.008  -11.574668   -0.563265   -5.331903
  60 H     1.0000    0     1.008   16.702641    0.795561   -2.813735
  61 H     1.0000    0     1.008   14.432659    3.231986   -2.820929
  62 H     1.0000    0     1.008   14.442362    3.228128    1.956774
  63 H     1.0000    0     1.008   16.724399    0.803598    1.918037
  64 H     1.0000    0     1.008   13.664419   -1.995330   -5.280673
  65 H     1.0000    0     1.008   14.491803    0.797395   -6.935938
  66 H     1.0000    0     1.008   11.519545    0.566303   -5.444225
  67 H     1.0000    0     1.008   11.569015    0.535201    4.599481
  68 H     1.0000    0     1.008   14.553251    0.785204    6.063747
  69 H     1.0000    0     1.008   13.730557   -2.010390    4.410083

--------------------------------
INTERNAL COORDINATES (ANGSTROEM)
--------------------------------
 C      0   0   0     0.000000000000     0.00000000     0.00000000
 C      1   0   0     1.461070576905     0.00000000     0.00000000
 C      2   1   0     1.424902787690   119.10796058     0.00000000
 C      3   2   1     1.424840807969   121.74915837     1.86266757
 C      4   3   2     1.461083046090   119.12285948   358.72576820
 C      1   2   3     1.424828662575   119.11673676   357.91059017
 C      2   1   3     1.394989205477   122.36463886   181.00545796
 C      7   2   1     1.392094852555   121.93190205   179.35015771
 C      8   7   2     1.382525428514   120.45768774   359.89256352
 C      9   8   7     1.408635634065   119.63427652     0.27424605
 C     10   9   8     1.408678689483   119.29575602   179.91795798
 C     11  10   9     1.382804770911   119.58684891   180.04467852
 C     12  11  10     1.392034784903   120.47218247   359.94001616
 C      5   4   3     1.395007299868   122.36433307   179.94769842
 C     14   5   4     1.392092680318   121.93259115   180.22934725
 C     15  14   5     1.382527734904   120.45808688     0.11308215
 C     16  15  14     1.408633248799   119.63353859   359.94382962
 C     17  16  15     1.408683332278   119.29609992   180.02706012
 C     18  17  16     1.382800918961   119.58784537   179.92305732
 C     19  18  17     1.392033896438   120.47183869     0.28130140
 C     16  15  14     1.478295943080   119.26983687   180.08872490
 N     21  16  15     1.396747430297   117.40545345   179.95858027
 C     22  21  16     1.404765725481   123.84745919   359.84587602
 C      9   8   7     1.478300947407   119.26896458   179.99938657
 N     24   9   8     1.396750395972   117.40549090   180.18212706
 C     25  24   9     1.404763758206   123.84750291   359.93000431
 O     24   9   8     1.223216645988   121.28306019     0.14152869
 O     26  25  24     1.222666273918   121.67860241   180.14927602
 O     21  16  15     1.223216135353   121.28374185   359.93984935
 O     23  22  21     1.222665075668   121.67807979   180.17111096
 C     22  21  16     1.492612780287   118.81544215   179.90339473
 C     25  24   9     1.492614432607   118.81487966   180.08553046
 C     31  22  21     1.532639045171   112.01052837   295.82518708
 C     31  22  21     1.532660613977   112.01345290    64.25640141
 C     34  31  22     1.526666257044   113.29556383    51.06018911
 C     33  31  22     1.526699020487   113.28554903   309.12443861
 C     32  25  24     1.532658717813   112.03581023   295.90212638
 C     32  25  24     1.532632234345   111.98781023    64.33043053
 C     37  32  25     1.526672076677   113.29298559   309.17994088
 C     38  32  25     1.526693055649   113.28906975    51.12037831
 H      7   2   1     1.083282018274   120.31295436   359.07389260
 H      8   7   2     1.085238899721   120.86691730   179.96768516
 H     12  11  10     1.085155206447   118.68866679   179.98481182
 H     13  12  11     1.083273006071   117.73211127   179.89081052
 H     14   5   4     1.083277974740   120.31681029     0.44291394
 H     15  14   5     1.085237064445   120.86626654   180.06235504
 H     19  18  17     1.085154939966   118.68841111   180.20654508
 H     20  19  18     1.083276141621   117.73669727   180.15611222
 H     31  22  21     1.094224449591   103.22432016   180.04623573
 H     32  25  24     1.094222899255   103.22554225   180.10921878
 H     33  31  22     1.097941760984   106.09596412   188.89663469
 H     33  31  22     1.093961460092   110.09218350    73.44248150
 H     34  31  22     1.093967447128   110.06316106   286.75194077
 H     34  31  22     1.097945774266   106.11013114   171.30914529
 H     35  34  31     1.095643029224   111.39449312   293.33465420
 H     35  34  31     1.094217024954   110.79165814   173.94013017
 H     35  34  31     1.095919591031   111.32061186    53.60778941
 H     36  33  31     1.095950868420   111.30664974   306.64778106
 H     36  33  31     1.094222231196   110.80282141   186.33524265
 H     36  33  31     1.095613291125   111.39713212    66.91965986
 H     37  32  25     1.097938973911   106.09491453   188.95337586
 H     37  32  25     1.093957383335   110.08824482    73.49497333
 H     38  32  25     1.093973366461   110.06487311   286.81203127
 H     38  32  25     1.097947008381   106.11132420   171.37051289
 H     39  37  32     1.095960481037   111.31520907   306.60371133
 H     39  37  32     1.094224645174   110.79788230   186.29634819
 H     39  37  32     1.095617206200   111.40004956    66.88402070
 H     40  38  32     1.095640623792   111.39213616   293.29273545
 H     40  38  32     1.094215106363   110.79499249   173.89479679
 H     40  38  32     1.095911204847   111.31262378    53.55904409

---------------------------
INTERNAL COORDINATES (A.U.)
---------------------------
 C      0   0   0     0.000000000000     0.00000000     0.00000000
 C      1   0   0     2.761023252680     0.00000000     0.00000000
 C      2   1   0     2.692676036195   119.10796058     0.00000000
 C      3   2   1     2.692558911496   121.74915837     1.86266757
 C      4   3   2     2.761046816026   119.12285948   358.72576820
 C      1   2   3     2.692535960027   119.11673676   357.91059017
 C      2   1   3     2.636147558128   122.36463886   181.00545796
 C      7   2   1     2.630678023770   121.93190205   179.35015771
 C      8   7   2     2.612594433074   120.45768774   359.89256352
 C      9   8   7     2.661935570866   119.63427652     0.27424605
 C     10   9   8     2.662016933815   119.29575602   179.91795798
 C     11  10   9     2.613122313702   119.58684891   180.04467852
 C     12  11  10     2.630564512358   120.47218247   359.94001616
 C      5   4   3     2.636181751571   122.36433307   179.94769842
 C     14   5   4     2.630673918837   121.93259115   180.22934725
 C     15  14   5     2.612598791519   120.45808688     0.11308215
 C     16  15  14     2.661931063367   119.63353859   359.94382962
 C     17  16  15     2.662025707424   119.29609992   180.02706012
 C     18  17  16     2.613115034572   119.58784537   179.92305732
 C     19  18  17     2.630562833403   120.47183869     0.28130140
 C     16  15  14     2.793574477309   119.26983687   180.08872490
 N     21  16  15     2.639470121519   117.40545345   179.95858027
 C     22  21  16     2.654622503478   123.84745919   359.84587602
 C      9   8   7     2.793583934116   119.26896458   179.99938657
 N     24   9   8     2.639475725832   117.40549090   180.18212706
 C     25  24   9     2.654618785868   123.84750291   359.93000431
 O     24   9   8     2.311544463371   121.28306019     0.14152869
 O     26  25  24     2.310504410888   121.67860241   180.14927602
 O     21  16  15     2.311543498411   121.28374185   359.93984935
 O     23  22  21     2.310502146522   121.67807979   180.17111096
 C     22  21  16     2.820629378734   118.81544215   179.90339473
 C     25  24   9     2.820632501165   118.81487966   180.08553046
 C     31  22  21     2.896268057529   112.01052837   295.82518708
 C     31  22  21     2.896308816664   112.01345290    64.25640141
 C     34  31  22     2.884981123713   113.29556383    51.06018911
 C     33  31  22     2.885043037646   113.28554903   309.12443861
 C     32  25  24     2.896305233433   112.03581023   295.90212638
 C     32  25  24     2.896255186932   111.98781023    64.33043053
 C     37  32  25     2.884992121225   113.29298559   309.17994088
 C     38  32  25     2.885031765736   113.28906975    51.12037831
 H      7   2   1     2.047106340339   120.31295436   359.07389260
 H      8   7   2     2.050804310350   120.86691730   179.96768516
 H     12  11  10     2.050646152983   118.68866679   179.98481182
 H     13  12  11     2.047089309743   117.73211127   179.89081052
 H     14   5   4     2.047098699168   120.31681029     0.44291394
 H     15  14   5     2.050800842182   120.86626654   180.06235504
 H     19  18  17     2.050645649408   118.68841111   180.20654508
 H     20  19  18     2.047095235075   117.73669727   180.15611222
 H     31  22  21     2.067784538768   103.22432016   180.04623573
 H     32  25  24     2.067781609058   103.22554225   180.10921878
 H     33  31  22     2.074809239255   106.09596412   188.89663469
 H     33  31  22     2.067287560638   110.09218350    73.44248150
 H     34  31  22     2.067298874497   110.06316106   286.75194077
 H     34  31  22     2.074816823259   106.11013114   171.30914529
 H     35  34  31     2.070465265774   111.39449312   293.33465420
 H     35  34  31     2.067770508238   110.79165814   173.94013017
 H     35  34  31     2.070987891848   111.32061186    53.60778941
 H     36  33  31     2.071046997547   111.30664974   306.64778106
 H     36  33  31     2.067780346609   110.80282141   186.33524265
 H     36  33  31     2.070409068910   111.39713212    66.91965986
 H     37  32  25     2.074803972450   106.09491453   188.95337586
 H     37  32  25     2.067279856685   110.08824482    73.49497333
 H     38  32  25     2.067310060416   110.06487311   286.81203127
 H     38  32  25     2.074819155399   106.11132420   171.37051289
 H     39  37  32     2.071065162761   111.31520907   306.60371133
 H     39  37  32     2.067784908365   110.79788230   186.29634819
 H     39  37  32     2.070416467329   111.40004956    66.88402070
 H     40  38  32     2.070460720165   111.39213616   293.29273545
 H     40  38  32     2.067766882626   110.79499249   173.89479679
 H     40  38  32     2.070972044257   111.31262378    53.55904409

---------------------
BASIS SET INFORMATION
---------------------
There are 4 groups of distinct atoms

 Group   1 Type C   : 11s6p1d contracted to 5s3p1d pattern {62111/411/1}
 Group   2 Type N   : 11s6p2d contracted to 5s3p2d pattern {62111/411/11}
 Group   3 Type O   : 11s6p2d contracted to 5s3p2d pattern {62111/411/11}
 Group   4 Type H   : 4s1p contracted to 2s1p pattern {31/1}

Atom   0C    basis set group =>   1
Atom   1C    basis set group =>   1
Atom   2C    basis set group =>   1
Atom   3C    basis set group =>   1
Atom   4C    basis set group =>   1
Atom   5C    basis set group =>   1
Atom   6C    basis set group =>   1
Atom   7C    basis set group =>   1
Atom   8C    basis set group =>   1
Atom   9C    basis set group =>   1
Atom  10C    basis set group =>   1
Atom  11C    basis set group =>   1
Atom  12C    basis set group =>   1
Atom  13C    basis set group =>   1
Atom  14C    basis set group =>   1
Atom  15C    basis set group =>   1
Atom  16C    basis set group =>   1
Atom  17C    basis set group =>   1
Atom  18C    basis set group =>   1
Atom  19C    basis set group =>   1
Atom  20C    basis set group =>   1
Atom  21N    basis set group =>   2
Atom  22C    basis set group =>   1
Atom  23C    basis set group =>   1
Atom  24N    basis set group =>   2
Atom  25C    basis set group =>   1
Atom  26O    basis set group =>   3
Atom  27O    basis set group =>   3
Atom  28O    basis set group =>   3
Atom  29O    basis set group =>   3
Atom  30C    basis set group =>   1
Atom  31C    basis set group =>   1
Atom  32C    basis set group =>   1
Atom  33C    basis set group =>   1
Atom  34C    basis set group =>   1
Atom  35C    basis set group =>   1
Atom  36C    basis set group =>   1
Atom  37C    basis set group =>   1
Atom  38C    basis set group =>   1
Atom  39C    basis set group =>   1
Atom  40H    basis set group =>   4
Atom  41H    basis set group =>   4
Atom  42H    basis set group =>   4
Atom  43H    basis set group =>   4
Atom  44H    basis set group =>   4
Atom  45H    basis set group =>   4
Atom  46H    basis set group =>   4
Atom  47H    basis set group =>   4
Atom  48H    basis set group =>   4
Atom  49H    basis set group =>   4
Atom  50H    basis set group =>   4
Atom  51H    basis set group =>   4
Atom  52H    basis set group =>   4
Atom  53H    basis set group =>   4
Atom  54H    basis set group =>   4
Atom  55H    basis set group =>   4
Atom  56H    basis set group =>   4
Atom  57H    basis set group =>   4
Atom  58H    basis set group =>   4
Atom  59H    basis set group =>   4
Atom  60H    basis set group =>   4
Atom  61H    basis set group =>   4
Atom  62H    basis set group =>   4
Atom  63H    basis set group =>   4
Atom  64H    basis set group =>   4
Atom  65H    basis set group =>   4
Atom  66H    basis set group =>   4
Atom  67H    basis set group =>   4
Atom  68H    basis set group =>   4
Atom  69H    basis set group =>   4
---------------------------------
AUXILIARY/J BASIS SET INFORMATION
---------------------------------
There are 4 groups of distinct atoms

 Group   1 Type C   : 8s3p3d contracted to 6s3p3d pattern {311111/111/111}
 Group   2 Type N   : 8s3p3d contracted to 6s3p3d pattern {311111/111/111}
 Group   3 Type O   : 8s3p3d contracted to 6s3p3d pattern {311111/111/111}
 Group   4 Type H   : 5s2p1d contracted to 3s1p1d pattern {311/2/1}

Atom   0C    basis set group =>   1
Atom   1C    basis set group =>   1
Atom   2C    basis set group =>   1
Atom   3C    basis set group =>   1
Atom   4C    basis set group =>   1
Atom   5C    basis set group =>   1
Atom   6C    basis set group =>   1
Atom   7C    basis set group =>   1
Atom   8C    basis set group =>   1
Atom   9C    basis set group =>   1
Atom  10C    basis set group =>   1
Atom  11C    basis set group =>   1
Atom  12C    basis set group =>   1
Atom  13C    basis set group =>   1
Atom  14C    basis set group =>   1
Atom  15C    basis set group =>   1
Atom  16C    basis set group =>   1
Atom  17C    basis set group =>   1
Atom  18C    basis set group =>   1
Atom  19C    basis set group =>   1
Atom  20C    basis set group =>   1
Atom  21N    basis set group =>   2
Atom  22C    basis set group =>   1
Atom  23C    basis set group =>   1
Atom  24N    basis set group =>   2
Atom  25C    basis set group =>   1
Atom  26O    basis set group =>   3
Atom  27O    basis set group =>   3
Atom  28O    basis set group =>   3
Atom  29O    basis set group =>   3
Atom  30C    basis set group =>   1
Atom  31C    basis set group =>   1
Atom  32C    basis set group =>   1
Atom  33C    basis set group =>   1
Atom  34C    basis set group =>   1
Atom  35C    basis set group =>   1
Atom  36C    basis set group =>   1
Atom  37C    basis set group =>   1
Atom  38C    basis set group =>   1
Atom  39C    basis set group =>   1
Atom  40H    basis set group =>   4
Atom  41H    basis set group =>   4
Atom  42H    basis set group =>   4
Atom  43H    basis set group =>   4
Atom  44H    basis set group =>   4
Atom  45H    basis set group =>   4
Atom  46H    basis set group =>   4
Atom  47H    basis set group =>   4
Atom  48H    basis set group =>   4
Atom  49H    basis set group =>   4
Atom  50H    basis set group =>   4
Atom  51H    basis set group =>   4
Atom  52H    basis set group =>   4
Atom  53H    basis set group =>   4
Atom  54H    basis set group =>   4
Atom  55H    basis set group =>   4
Atom  56H    basis set group =>   4
Atom  57H    basis set group =>   4
Atom  58H    basis set group =>   4
Atom  59H    basis set group =>   4
Atom  60H    basis set group =>   4
Atom  61H    basis set group =>   4
Atom  62H    basis set group =>   4
Atom  63H    basis set group =>   4
Atom  64H    basis set group =>   4
Atom  65H    basis set group =>   4
Atom  66H    basis set group =>   4
Atom  67H    basis set group =>   4
Atom  68H    basis set group =>   4
Atom  69H    basis set group =>   4

Checking for AutoStart:
The File: pdi_terminal_functionalized_freq.gbw exists
Trying to determine its content:
     ... Fine, the file contains calculation information
     ... Fine, the calculation information was read
     ... Fine, the file contains a basis set
     ... Fine, the basis set was read
     ... Fine, the file contains a geometry
     ... Fine, the geometry was read
     ... The file does not contain orbitals - skipping AutoStart


           ************************************************************
           *        Program running with 4 parallel MPI-processes     *
           *              working on a common directory               *
           ************************************************************
------------------------------------------------------------------------------
                             ORCA STARTUP CALCULATIONS
                           -- RI-GTO INTEGRALS CHOSEN --
------------------------------------------------------------------------------
------------------------------------------------------------------------------
                   ___                                                        
                  /   \      - P O W E R E D   B Y -                         
                 /     \                                                     
                 |  |  |   _    _      __       _____    __    __             
                 |  |  |  | |  | |    /  \     |  _  \  |  |  /  |          
                  \  \/   | |  | |   /    \    | | | |  |  | /  /          
                 / \  \   | |__| |  /  /\  \   | |_| |  |  |/  /          
                |  |  |   |  __  | /  /__\  \  |    /   |      \           
                |  |  |   | |  | | |   __   |  |    \   |  |\   \          
                \     /   | |  | | |  |  |  |  | |\  \  |  | \   \       
                 \___/    |_|  |_| |__|  |__|  |_| \__\ |__|  \__/        
                                                                              
                      - O R C A' S   B I G   F R I E N D -                    
                                      &                                       
                       - I N T E G R A L  F E E D E R -                       
                                                                              
 v1 FN, 2020, v2 2021, v3 2022-2024                                           
------------------------------------------------------------------------------


----------------------
SHARK INTEGRAL PACKAGE
----------------------

Number of atoms                             ...     70
Number of basis functions                   ...    940
Number of shells                            ...    456
Maximum angular momentum                    ...      2
Integral batch strategy                     ... SHARK/LIBINT Hybrid
RI-J (if used) integral strategy            ... SPLIT-RIJ (Revised 2003 algorithm where possible)
Printlevel                                  ...      1
Contraction scheme used                     ... SEGMENTED contraction
Prescreening option                         ... SCHWARTZ
   Thresh                                   ... 2.500e-11
   Tcut                                     ... 2.500e-12
   Tpresel                                  ... 2.500e-12 
Coulomb Range Separation                    ... NOT USED
Exchange Range Separation                   ... NOT USED
Multipole approximations                    ... NOT USED
Finite Nucleus Model                        ... NOT USED
CABS basis                                  ... NOT available
Auxiliary Coulomb fitting basis             ... AVAILABLE
   # of basis functions in Aux-J            ...   1530
   # of shells in Aux-J                     ...    630
   Maximum angular momentum in Aux-J        ...      2
Auxiliary J/K fitting basis                 ... NOT available
Auxiliary Correlation fitting basis         ... NOT available
Auxiliary 'external' fitting basis          ... NOT available

Checking pre-screening integrals            ... done (  0.0 sec) Dimension = 456
   => SHARK Basis and OBASIS are compatible. Storing Pre-screening
Shell pair information
Shell pair cut-off parameter TPreSel        ...   2.5e-12
Total number of shell pairs                 ...    104196
Shell pairs after pre-screening             ...     53274
Total number of primitive shell pairs       ...    385096
Primitive shell pairs kept                  ...    118718
          la=0 lb=0:  16201 shell pairs
          la=1 lb=0:  20853 shell pairs
          la=1 lb=1:   6663 shell pairs
          la=2 lb=0:   5467 shell pairs
          la=2 lb=1:   3597 shell pairs
          la=2 lb=2:    493 shell pairs

Checking whether 4 symmetric matrices of dimension 940 fit in memory
:Max Core in MB      =   8000.00
 MB in use           =     51.78
 MB left             =   7948.22
 MB needed           =     13.50
 Data fit in memory  = YES
Calculating RI/J V-Matrix + Cholesky decomp.... done (  0.1 sec)
Calculating Nuclear repulsion               ... done (  0.0 sec) ENN=   4340.063956306825 Eh

Diagonalization of the overlap matrix:
Smallest eigenvalue                        ... 4.126e-06
Time for diagonalization                   ...    0.070 sec
Threshold for overlap eigenvalues          ... 1.000e-07
Number of eigenvalues below threshold      ... 0
Time for construction of square roots      ...    0.019 sec
Total time needed                          ...    0.092 sec

-------------------
DFT GRID GENERATION
-------------------

General Integration Accuracy     IntAcc      ... 4.388
Radial Grid Type                 RadialGrid  ... OptM3 with GC (2021)
Angular Grid (max. ang.)         AngularGrid ... 4 (Lebedev-302)
Angular grid pruning method      GridPruning ... 4 (adaptive)
Weight generation scheme         WeightScheme... mBecke (2022)
Basis function cutoff            BFCut       ... 1.0000e-11
Integration weight cutoff        WCut        ... 1.0000e-14
Partially contracted basis set               ... off
Rotationally invariant grid construction     ... off
Angular grids for H and He will be reduced by one unit
Diffuse basis detected: some atoms will have their outermost
                        angular grid increased by 1.

Total number of grid points                  ...   333104
Total number of batches                      ...     5241
Average number of points per batch           ...       63
Average number of grid points per atom       ...     4759
Grids setup in   2.1 sec
Initializing property integral containers    ... done (  0.0 sec)

SHARK setup successfully completed in   2.6 seconds

Maximum memory used throughout the entire STARTUP-calculation: 124.0 MB


           ************************************************************
           *        Program running with 4 parallel MPI-processes     *
           *              working on a common directory               *
           ************************************************************
-------------------------------------------------------------------------------
                                 ORCA GUESS
                   Start orbitals & Density for SCF / CASSCF
-------------------------------------------------------------------------------

------------
SCF SETTINGS
------------
Hamiltonian:
 Density Functional     Method          .... DFT(GTOs)
  Functional kind                       .... Exchange
  Functional name                       .... Re-regularized SCAN exchange by Furness et al
  Functional family                     .... MGGA
  Functional refs                              
    [ 0] J. W. Furness, A. D. Kaplan, J. Ning, J. P. Perdew, and J. Sun.,  J. Phys. Chem. Lett. 11, 8208-8215 (2020), doi: 10.1021/acs.jpclett.0c02405
    [ 1] J. W. Furness, A. D. Kaplan, J. Ning, J. P. Perdew, and J. Sun.,  J. Phys. Chem. Lett. 11, 9248-9248 (2020), doi: 10.1021/acs.jpclett.0c03077
  Functional external parameters        .... 6
    Parameter  0 _c1        =  6.670000e-01 : c1 parameter        
    Parameter  1 _c2        =  8.000000e-01 : c2 parameter        
    Parameter  2 _d         =  1.240000e+00 : d parameter         
    Parameter  3 _k1        =  6.500000e-02 : k1 parameter        
    Parameter  4 _eta       =  1.000000e-03 : eta parameter       
    Parameter  5 _dp2       =  3.610000e-01 : dp2 parameter       
  Functional kind                       .... Correlation
  Functional name                       .... Re-regularized SCAN correlation by Furness et al
  Functional family                     .... MGGA
  Functional refs                              
    [ 0] J. W. Furness, A. D. Kaplan, J. Ning, J. P. Perdew, and J. Sun.,  J. Phys. Chem. Lett. 11, 8208-8215 (2020), doi: 10.1021/acs.jpclett.0c02405
    [ 1] J. W. Furness, A. D. Kaplan, J. Ning, J. P. Perdew, and J. Sun.,  J. Phys. Chem. Lett. 11, 9248-9248 (2020), doi: 10.1021/acs.jpclett.0c03077
  Functional external parameters        .... 1
    Parameter  0 _eta       =  1.000000e-03 : Regularization parameter
 Gradients option       PostSCFGGA      .... off
 RI-approximation to the Coulomb term is turned on
   Number of AuxJ basis functions       .... 1530


General Settings:
 Integral files         IntName         .... pdi_terminal_functionalized_freq
 Hartree-Fock type      HFTyp           .... RHF
 Total Charge           Charge          ....    0
 Multiplicity           Mult            ....    1
 Number of Electrons    NEL             ....  280
 Basis Dimension        Dim             ....  940
 Nuclear Repulsion      ENuc            ....   4340.0639563068 Eh

Convergence Acceleration:
 AO-DIIS                CNVDIIS         .... on
   Start iteration      DIISMaxIt       ....    12
   Startup error        DIISStart       ....  0.200000
   # of expansion vecs  DIISMaxEq       ....     5
   Bias factor          DIISBfac        ....   1.050
   Max. coefficient     DIISMaxC        ....  10.000
 MO-DIIS                CNVKDIIS        .... off
 Trust-Rad. Augm. Hess. CNVTRAH         .... auto
   Auto Start mean grad. ratio tolernc. ....  1.125000
   Auto Start start iteration           ....    50
   Auto Start num. interpolation iter.  ....    10
   Max. Number of Micro iterations      ....    24
   Max. Number of Macro iterations      .... Maxiter - #DIIS iter
   Number of Davidson start vectors     ....     2
   Converg. threshold    (grad. norm)   ....   1.000e-05
   Grad. Scal. Fac. for Micro threshold ....   0.100
   Minimum threshold for Micro iter.    ....   1.000e-02
   NR start threshold (gradient norm)   ....   1.000e-04
   Initial trust radius                 ....   0.400
   Minimum AH scaling param. (alpha)    ....   1.000
   Maximum AH scaling param. (alpha)    .... 1000.000
   Quad. conv. algorithm                .... NR
   White noise on init. David. guess    .... on
   Maximum white noise                  ....   0.010
   Pseudo random numbers                .... off
   Inactive MOs                         .... canonical
   Orbital update algorithm             .... Taylor
   Preconditioner                       .... Diag
   Full preconditioner red. dimension   ....   250
   COSX micro iterations for RIJONX calc.... off
 SOSCF                 CNVSOSCF           .... on
   Start iteration     SOSCFMaxIt         ....   150
   Startup grad/error  SOSCFStart         ....  0.003300
   Hessian update      SOSCFHessUp        .... L-BFGS
   Autom. constraints  SOSCFAutoConstrain .... off
 Level Shifting         CNVShift        .... on
   Level shift para.    LevelShift      ....    0.2500
   Turn off err/grad.   ShiftErr        ....    0.0010
 Zerner damping         CNVZerner       .... off
 Static damping         CNVDamp         .... on
   Fraction old density DampFac         ....    0.7000
   Max. Damping (<1)    DampMax         ....    0.9800
   Min. Damping (>=0)   DampMin         ....    0.0000
   Turn off err/grad.   DampErr         ....    0.1000

SCF Procedure:
 Maximum # iterations   MaxIter         ....   125
 SCF integral mode      SCFMode         .... Direct
   Integral package                     .... SHARK and LIBINT hybrid scheme
 Reset frequency        DirectResetFreq ....    20
 Integral Threshold     Thresh          ....  2.500e-11 Eh
 Primitive CutOff       TCut            ....  2.500e-12 Eh

Convergence Tolerance:
 Convergence Check Mode ConvCheckMode   .... Total+1el-Energy
 Convergence forced     ConvForced      .... 0
 Energy Change          TolE            ....  1.000e-08 Eh
 1-El. energy change                    ....  1.000e-05 Eh
 Orbital Gradient       TolG            ....  1.000e-05
 Orbital Rotation angle TolX            ....  1.000e-05
 DIIS Error             TolErr          ....  5.000e-07

------------------------------
INITIAL GUESS: MODEL POTENTIAL
------------------------------
Loading Hartree-Fock densities                     ... done
Calculating cut-offs                               ... done
Initializing the effective Hamiltonian             ... done
Setting up the integral package (SHARK)            ... done
Starting the Coulomb interaction                   ... done (   0.8 sec)
Making the grid                                    ... done (   0.6 sec)
Mapping shells                                     ... done
Starting the XC term evaluation                    ... done (   0.4 sec)
  promolecular density results
     # of electrons  =    279.963430243
     EX              =   -228.635853894
     EC              =     -9.487175629
     EX+EC           =   -238.123029523
Transforming the Hamiltonian                       ... done (   0.0 sec)
Diagonalizing the Hamiltonian                      ... done (   0.1 sec)
Back transforming the eigenvectors                 ... done (   0.0 sec)
Now organizing SCF variables                       ... done
                      ------------------
                      INITIAL GUESS DONE (   1.9 sec)
                      ------------------
             **** ENERGY FILE WAS UPDATED (pdi_terminal_functionalized_freq.en.tmp) ****
Finished Guess after   2.2 sec
Maximum memory used throughout the entire GUESS-calculation: 78.0 MB
--------------------------------------------------------------------------
A system call failed during shared memory initialization that should
not have.  It is likely that your MPI job will now either abort or
experience performance degradation.

  Local host:  Angzes-MacBook-Pro.local
  System call: unlink(2) /var/folders/n1/bmzcbfxs2fgc29_x3l4x_s_m0000gn/T//ompi.Angzes-MacBook-Pro.501/pid.89675/1/vader_segment.Angzes-MacBook-Pro.501.36ae0001.2
  Error:       No such file or directory (errno 2)
--------------------------------------------------------------------------


           ************************************************************
           *        Program running with 4 parallel MPI-processes     *
           *              working on a common directory               *
           ************************************************************

-------------------------------------------------------------------------------------------
                                      ORCA LEAN-SCF
                              memory conserving SCF solver
-------------------------------------------------------------------------------------------

----------------------------------------D-I-I-S--------------------------------------------
Iteration    Energy (Eh)           Delta-E    RMSDP     MaxDP     DIISErr   Damp  Time(sec)
-------------------------------------------------------------------------------------------
               ***  Starting incremental Fock matrix formation  ***
    1    -1722.9825889408093644     0.00e+00  8.50e-03  3.34e-01  2.73e-01  0.700   5.2
Warning: op=0 Small HOMO/LUMO gap (   0.055) - skipping pre-diagonalization
         Will do a full diagonalization
    2    -1723.4240626068740312    -4.41e-01  6.00e-03  2.26e-01  9.28e-02  0.700   4.3
                               ***Turning on AO-DIIS***
    3    -1723.5847653444197931    -1.61e-01  2.20e-03  1.15e-01  3.42e-02  0.700   4.1
    4    -1723.6841556328790830    -9.94e-02  4.81e-03  2.63e-01  1.70e-02  0.000   4.0
    5    -1723.9042619895444659    -2.20e-01  1.60e-03  7.09e-02  5.45e-03  0.000   4.0
                              *** Initializing SOSCF ***
---------------------------------------S-O-S-C-F--------------------------------------
Iteration    Energy (Eh)           Delta-E    RMSDP     MaxDP     MaxGrad    Time(sec)
--------------------------------------------------------------------------------------
    6    -1723.9055548040296344    -1.29e-03  1.22e-03  5.65e-02  2.56e-03     3.7
               *** Restarting incremental Fock matrix formation ***
    7    -1723.9056342030526139    -7.94e-05  8.58e-04  3.11e-02  7.29e-04     5.6
    8    -1723.9055054338932678     1.29e-04  5.25e-04  2.22e-02  1.88e-03     3.3
    9    -1723.9056685708246732    -1.63e-04  8.78e-05  4.43e-03  1.38e-04     3.3
   10    -1723.9056658105246242     2.76e-06  4.82e-05  1.87e-03  2.44e-04     2.7
   11    -1723.9056696921606999    -3.88e-06  2.96e-05  1.52e-03  2.29e-05     2.6
   12    -1723.9056696528841712     3.93e-08  1.47e-05  8.03e-04  3.25e-05     2.7
   13    -1723.9056697301275562    -7.72e-08  3.57e-05  1.46e-03  6.31e-06     2.5
   14    -1723.9056697274590988     2.67e-09  1.51e-05  5.55e-04  1.17e-05     2.5
                 **** Energy Check signals convergence ****

               *****************************************************
               *                     SUCCESS                       *
               *           SCF CONVERGED AFTER  14 CYCLES          *
               *****************************************************

             **** ENERGY FILE WAS UPDATED (pdi_terminal_functionalized_freq.en.tmp) ****

----------------
TOTAL SCF ENERGY
----------------

Total Energy       :      -1723.90566975045749 Eh          -46909.85813 eV

Components:
Nuclear Repulsion  :       4340.06395630682528 Eh          118099.14430 eV
Electronic Energy  :      -6063.96962605728277 Eh         -165009.00242 eV
One Electron Energy:     -10975.31814295699405 Eh         -298653.58992 eV
Two Electron Energy:       4911.34851689971129 Eh          133644.58750 eV

Virial components:
Potential Energy   :      -3440.13872228110358 Eh          -93610.93372 eV
Kinetic Energy     :       1716.23305253064609 Eh           46701.07560 eV
Virial Ratio       :          2.00447061499515

DFT components:
N(Alpha)           :      140.000434848058 electrons
N(Beta)            :      140.000434848058 electrons
N(Total)           :      280.000869696116 electrons
E(X)               :     -234.352179609901 Eh       
E(C)               :       -9.204155868926 Eh       
E(XC)              :     -243.556335478827 Eh       

---------------
SCF CONVERGENCE
---------------

  Last Energy change         ...   -2.6685e-09  Tolerance :   1.0000e-08
  Last MAX-Density change    ...    5.5525e-04  Tolerance :   1.0000e-07
  Last RMS-Density change    ...    1.5074e-05  Tolerance :   5.0000e-09
  Last DIIS Error            ...    2.5570e-03  Tolerance :   5.0000e-07
  Last Orbital Gradient      ...    1.1697e-05  Tolerance :   1.0000e-05
  Last Orbital Rotation      ...    2.1045e-05  Tolerance :   1.0000e-05


----------------
ORBITAL ENERGIES
----------------

  NO   OCC          E(Eh)            E(eV) 
   0   2.0000     -18.940755      -515.4041 
   1   2.0000     -18.940754      -515.4041 
   2   2.0000     -18.939417      -515.3677 
   3   2.0000     -18.939416      -515.3677 
   4   2.0000     -14.224072      -387.0567 
   5   2.0000     -14.224070      -387.0566 
   6   2.0000     -10.157218      -276.3919 
   7   2.0000     -10.157218      -276.3919 
   8   2.0000     -10.156310      -276.3672 
   9   2.0000     -10.156308      -276.3672 
  10   2.0000     -10.089691      -274.5545 
  11   2.0000     -10.089681      -274.5542 
  12   2.0000     -10.089439      -274.5476 
  13   2.0000     -10.089419      -274.5470 
  14   2.0000     -10.084798      -274.4213 
  15   2.0000     -10.084790      -274.4211 
  16   2.0000     -10.083239      -274.3789 
  17   2.0000     -10.083236      -274.3788 
  18   2.0000     -10.075038      -274.1557 
  19   2.0000     -10.075034      -274.1556 
  20   2.0000     -10.074505      -274.1412 
  21   2.0000     -10.074505      -274.1412 
  22   2.0000     -10.073865      -274.1238 
  23   2.0000     -10.073864      -274.1238 
  24   2.0000     -10.071427      -274.0575 
  25   2.0000     -10.071421      -274.0573 
  26   2.0000     -10.071379      -274.0561 
  27   2.0000     -10.071375      -274.0561 
  28   2.0000     -10.069974      -274.0179 
  29   2.0000     -10.069971      -274.0178 
  30   2.0000     -10.069888      -274.0156 
  31   2.0000     -10.069886      -274.0155 
  32   2.0000     -10.029290      -272.9109 
  33   2.0000     -10.029290      -272.9108 
  34   2.0000     -10.029237      -272.9094 
  35   2.0000     -10.029236      -272.9094 
  36   2.0000     -10.020815      -272.6802 
  37   2.0000     -10.020789      -272.6795 
  38   2.0000     -10.020759      -272.6787 
  39   2.0000     -10.020733      -272.6780 
  40   2.0000      -1.034841       -28.1595 
  41   2.0000      -1.034839       -28.1594 
  42   2.0000      -1.015965       -27.6458 
  43   2.0000      -1.015964       -27.6458 
  44   2.0000      -0.916511       -24.9395 
  45   2.0000      -0.916033       -24.9265 
  46   2.0000      -0.899618       -24.4799 
  47   2.0000      -0.874801       -23.8045 
  48   2.0000      -0.842381       -22.9224 
  49   2.0000      -0.824052       -22.4236 
  50   2.0000      -0.820359       -22.3231 
  51   2.0000      -0.784133       -21.3374 
  52   2.0000      -0.769965       -20.9518 
  53   2.0000      -0.762689       -20.7538 
  54   2.0000      -0.753303       -20.4984 
  55   2.0000      -0.751209       -20.4414 
  56   2.0000      -0.741210       -20.1693 
  57   2.0000      -0.722394       -19.6574 
  58   2.0000      -0.722394       -19.6573 
  59   2.0000      -0.715022       -19.4567 
  60   2.0000      -0.674064       -18.3422 
  61   2.0000      -0.672226       -18.2922 
  62   2.0000      -0.658299       -17.9132 
  63   2.0000      -0.640335       -17.4244 
  64   2.0000      -0.639703       -17.4072 
  65   2.0000      -0.636126       -17.3099 
  66   2.0000      -0.621289       -16.9061 
  67   2.0000      -0.605861       -16.4863 
  68   2.0000      -0.603648       -16.4261 
  69   2.0000      -0.600683       -16.3454 
  70   2.0000      -0.570578       -15.5262 
  71   2.0000      -0.570577       -15.5262 
  72   2.0000      -0.568590       -15.4721 
  73   2.0000      -0.558228       -15.1902 
  74   2.0000      -0.540199       -14.6996 
  75   2.0000      -0.530432       -14.4338 
  76   2.0000      -0.529714       -14.4143 
  77   2.0000      -0.510742       -13.8980 
  78   2.0000      -0.500547       -13.6206 
  79   2.0000      -0.492207       -13.3936 
  80   2.0000      -0.486811       -13.2468 
  81   2.0000      -0.469330       -12.7711 
  82   2.0000      -0.465981       -12.6800 
  83   2.0000      -0.458766       -12.4836 
  84   2.0000      -0.457857       -12.4589 
  85   2.0000      -0.450461       -12.2577 
  86   2.0000      -0.448530       -12.2051 
  87   2.0000      -0.447782       -12.1848 
  88   2.0000      -0.436450       -11.8764 
  89   2.0000      -0.426604       -11.6085 
  90   2.0000      -0.423216       -11.5163 
  91   2.0000      -0.421013       -11.4563 
  92   2.0000      -0.414581       -11.2813 
  93   2.0000      -0.412673       -11.2294 
  94   2.0000      -0.410294       -11.1647 
  95   2.0000      -0.409506       -11.1432 
  96   2.0000      -0.407794       -11.0967 
  97   2.0000      -0.405352       -11.0302 
  98   2.0000      -0.404126       -10.9968 
  99   2.0000      -0.399470       -10.8701 
 100   2.0000      -0.392042       -10.6680 
 101   2.0000      -0.391601       -10.6560 
 102   2.0000      -0.385678       -10.4948 
 103   2.0000      -0.385540       -10.4911 
 104   2.0000      -0.384373       -10.4593 
 105   2.0000      -0.382340       -10.4040 
 106   2.0000      -0.379273       -10.3206 
 107   2.0000      -0.374022       -10.1777 
 108   2.0000      -0.371951       -10.1213 
 109   2.0000      -0.370683       -10.0868 
 110   2.0000      -0.367644       -10.0041 
 111   2.0000      -0.359262        -9.7760 
 112   2.0000      -0.358928        -9.7669 
 113   2.0000      -0.354344        -9.6422 
 114   2.0000      -0.347344        -9.4517 
 115   2.0000      -0.337017        -9.1707 
 116   2.0000      -0.328670        -8.9436 
 117   2.0000      -0.328287        -8.9331 
 118   2.0000      -0.324889        -8.8407 
 119   2.0000      -0.323189        -8.7944 
 120   2.0000      -0.321708        -8.7541 
 121   2.0000      -0.319822        -8.7028 
 122   2.0000      -0.319597        -8.6967 
 123   2.0000      -0.309196        -8.4136 
 124   2.0000      -0.309006        -8.4085 
 125   2.0000      -0.303971        -8.2715 
 126   2.0000      -0.303373        -8.2552 
 127   2.0000      -0.302123        -8.2212 
 128   2.0000      -0.299794        -8.1578 
 129   2.0000      -0.271540        -7.3890 
 130   2.0000      -0.271465        -7.3869 
 131   2.0000      -0.267217        -7.2713 
 132   2.0000      -0.263840        -7.1794 
 133   2.0000      -0.253153        -6.8886 
 134   2.0000      -0.251818        -6.8523 
 135   2.0000      -0.248057        -6.7500 
 136   2.0000      -0.248020        -6.7490 
 137   2.0000      -0.240214        -6.5366 
 138   2.0000      -0.239995        -6.5306 
 139   2.0000      -0.211922        -5.7667 
 140   0.0000      -0.152558        -4.1513 
 141   0.0000      -0.098158        -2.6710 
 142   0.0000      -0.092149        -2.5075 
 143   0.0000      -0.078403        -2.1334 
 144   0.0000      -0.057283        -1.5587 
 145   0.0000      -0.047717        -1.2984 
 146   0.0000      -0.044752        -1.2178 
 147   0.0000      -0.011311        -0.3078 
 148   0.0000       0.021042         0.5726 
 149   0.0000       0.040717         1.1080 
 150   0.0000       0.049226         1.3395 
*Only the first 10 virtual orbitals were printed.

                    ********************************
                    * MULLIKEN POPULATION ANALYSIS *
                    ********************************

-----------------------
MULLIKEN ATOMIC CHARGES
-----------------------
   0 C :    0.150194
   1 C :    0.150088
   2 C :    0.040374
   3 C :    0.155111
   4 C :    0.153980
   5 C :    0.043333
   6 C :   -0.245108
   7 C :   -0.294357
   8 C :    0.153761
   9 C :    0.168738
  10 C :    0.173014
  11 C :   -0.289634
  12 C :   -0.247974
  13 C :   -0.247805
  14 C :   -0.293359
  15 C :    0.153343
  16 C :    0.169846
  17 C :    0.172424
  18 C :   -0.291160
  19 C :   -0.246413
  20 C :   -0.028828
  21 N :    0.322684
  22 C :    0.071634
  23 C :   -0.028566
  24 N :    0.322707
  25 C :    0.071229
  26 O :   -0.402266
  27 O :   -0.426714
  28 O :   -0.402212
  29 O :   -0.426752
  30 C :   -0.196226
  31 C :   -0.196302
  32 C :   -0.259743
  33 C :   -0.260202
  34 C :   -0.524414
  35 C :   -0.525155
  36 C :   -0.258939
  37 C :   -0.260945
  38 C :   -0.524675
  39 C :   -0.524896
  40 H :    0.126582
  41 H :    0.182867
  42 H :    0.183101
  43 H :    0.126461
  44 H :    0.126552
  45 H :    0.182858
  46 H :    0.183105
  47 H :    0.126509
  48 H :    0.238769
  49 H :    0.238767
  50 H :    0.149599
  51 H :    0.185241
  52 H :    0.185330
  53 H :    0.149571
  54 H :    0.152197
  55 H :    0.152238
  56 H :    0.164190
  57 H :    0.164275
  58 H :    0.152265
  59 H :    0.152407
  60 H :    0.149567
  61 H :    0.185169
  62 H :    0.185410
  63 H :    0.149597
  64 H :    0.164179
  65 H :    0.152202
  66 H :    0.152399
  67 H :    0.152202
  68 H :    0.152299
  69 H :    0.164279
Sum of atomic charges:   -0.0000000

--------------------------------
MULLIKEN REDUCED ORBITAL CHARGES
--------------------------------
  0 C s       :     3.302231  s :     3.302231
      pz      :     0.956731  p :     2.498416
      px      :     0.734049
      py      :     0.807636
      dz2     :     0.003595  d :     0.049160
      dxz     :     0.006360
      dyz     :     0.006716
      dx2y2   :     0.016498
      dxy     :     0.015990

  1 C s       :     3.302883  s :     3.302883
      pz      :     0.959406  p :     2.497889
      px      :     0.731164
      py      :     0.807319
      dz2     :     0.003594  d :     0.049140
      dxz     :     0.006334
      dyz     :     0.006724
      dx2y2   :     0.016468
      dxy     :     0.016019

  2 C s       :     3.543970  s :     3.543970
      pz      :     0.985682  p :     2.367563
      px      :     0.685112
      py      :     0.696769
      dz2     :     0.003649  d :     0.048092
      dxz     :     0.005668
      dyz     :     0.006278
      dx2y2   :     0.016472
      dxy     :     0.016025

  3 C s       :     3.302341  s :     3.302341
      pz      :     0.958486  p :     2.493390
      px      :     0.731401
      py      :     0.803503
      dz2     :     0.003593  d :     0.049158
      dxz     :     0.006357
      dyz     :     0.006716
      dx2y2   :     0.016501
      dxy     :     0.015991

  4 C s       :     3.305007  s :     3.305007
      pz      :     0.961018  p :     2.491875
      px      :     0.727616
      py      :     0.803240
      dz2     :     0.003593  d :     0.049138
      dxz     :     0.006332
      dyz     :     0.006724
      dx2y2   :     0.016469
      dxy     :     0.016019

  5 C s       :     3.543979  s :     3.543979
      pz      :     0.985738  p :     2.364595
      px      :     0.683750
      py      :     0.695108
      dz2     :     0.003649  d :     0.048093
      dxz     :     0.005668
      dyz     :     0.006278
      dx2y2   :     0.016472
      dxy     :     0.016025

  6 C s       :     3.250391  s :     3.250391
      pz      :     0.987666  p :     2.956754
      px      :     0.972913
      py      :     0.996175
      dz2     :     0.003188  d :     0.037963
      dxz     :     0.005486
      dyz     :     0.003012
      dx2y2   :     0.012438
      dxy     :     0.013840

  7 C s       :     3.292149  s :     3.292149
      pz      :     0.916906  p :     2.963098
      px      :     1.008895
      py      :     1.037297
      dz2     :     0.003180  d :     0.039109
      dxz     :     0.006001
      dyz     :     0.003581
      dx2y2   :     0.012351
      dxy     :     0.013996

  8 C s       :     3.241085  s :     3.241085
      pz      :     1.015489  p :     2.557773
      px      :     0.759623
      py      :     0.782662
      dz2     :     0.003776  d :     0.047381
      dxz     :     0.004393
      dyz     :     0.006865
      dx2y2   :     0.017496
      dxy     :     0.014851

  9 C s       :     3.451170  s :     3.451170
      pz      :     0.963313  p :     2.329479
      px      :     0.585523
      py      :     0.780643
      dz2     :     0.003671  d :     0.050614
      dxz     :     0.006455
      dyz     :     0.007248
      dx2y2   :     0.016532
      dxy     :     0.016709

 10 C s       :     3.222576  s :     3.222576
      pz      :     1.018625  p :     2.556967
      px      :     0.745440
      py      :     0.792903
      dz2     :     0.003775  d :     0.047444
      dxz     :     0.004356
      dyz     :     0.006863
      dx2y2   :     0.017510
      dxy     :     0.014939

 11 C s       :     3.289678  s :     3.289678
      pz      :     0.915456  p :     2.960850
      px      :     1.007019
      py      :     1.038375
      dz2     :     0.003181  d :     0.039106
      dxz     :     0.005970
      dyz     :     0.003620
      dx2y2   :     0.012346
      dxy     :     0.013989

 12 C s       :     3.252061  s :     3.252061
      pz      :     0.988648  p :     2.957971
      px      :     0.973611
      py      :     0.995712
      dz2     :     0.003188  d :     0.037942
      dxz     :     0.005505
      dyz     :     0.002976
      dx2y2   :     0.012467
      dxy     :     0.013807

 13 C s       :     3.251578  s :     3.251578
      pz      :     0.988036  p :     2.958263
      px      :     0.974119
      py      :     0.996108
      dz2     :     0.003187  d :     0.037963
      dxz     :     0.005487
      dyz     :     0.003012
      dx2y2   :     0.012440
      dxy     :     0.013838

 14 C s       :     3.291454  s :     3.291454
      pz      :     0.917155  p :     2.962797
      px      :     1.008558
      py      :     1.037084
      dz2     :     0.003180  d :     0.039108
      dxz     :     0.006000
      dyz     :     0.003582
      dx2y2   :     0.012350
      dxy     :     0.013997

 15 C s       :     3.241170  s :     3.241170
      pz      :     1.015254  p :     2.558107
      px      :     0.759994
      py      :     0.782858
      dz2     :     0.003776  d :     0.047381
      dxz     :     0.004393
      dyz     :     0.006866
      dx2y2   :     0.017495
      dxy     :     0.014850

 16 C s       :     3.451593  s :     3.451593
      pz      :     0.963506  p :     2.327948
      px      :     0.584267
      py      :     0.780175
      dz2     :     0.003671  d :     0.050614
      dxz     :     0.006455
      dyz     :     0.007248
      dx2y2   :     0.016532
      dxy     :     0.016708

 17 C s       :     3.222925  s :     3.222925
      pz      :     1.018864  p :     2.557207
      px      :     0.745323
      py      :     0.793019
      dz2     :     0.003776  d :     0.047444
      dxz     :     0.004357
      dyz     :     0.006863
      dx2y2   :     0.017509
      dxy     :     0.014938

 18 C s       :     3.290668  s :     3.290668
      pz      :     0.915384  p :     2.961385
      px      :     1.007481
      py      :     1.038520
      dz2     :     0.003181  d :     0.039107
      dxz     :     0.005972
      dyz     :     0.003621
      dx2y2   :     0.012346
      dxy     :     0.013986

 19 C s       :     3.251300  s :     3.251300
      pz      :     0.988240  p :     2.957170
      px      :     0.972733
      py      :     0.996198
      dz2     :     0.003188  d :     0.037942
      dxz     :     0.005505
      dyz     :     0.002978
      dx2y2   :     0.012463
      dxy     :     0.013808

 20 C s       :     3.273161  s :     3.273161
      pz      :     0.799647  p :     2.643941
      px      :     0.917656
      py      :     0.926638
      dz2     :     0.005270  d :     0.111726
      dxz     :     0.009363
      dyz     :     0.021981
      dx2y2   :     0.042897
      dxy     :     0.032215

 21 N s       :     3.144006  s :     3.144006
      pz      :     1.546328  p :     3.355356
      px      :     0.964797
      py      :     0.844230
      dz2     :     0.021784  d :     0.177954
      dxz     :     0.032315
      dyz     :     0.010128
      dx2y2   :     0.058035
      dxy     :     0.055692

 22 C s       :     3.303520  s :     3.303520
      pz      :     0.786763  p :     2.514478
      px      :     0.809018
      py      :     0.918698
      dz2     :     0.005255  d :     0.110368
      dxz     :     0.009440
      dyz     :     0.021862
      dx2y2   :     0.042495
      dxy     :     0.031317

 23 C s       :     3.272900  s :     3.272900
      pz      :     0.799639  p :     2.643941
      px      :     0.917646
      py      :     0.926655
      dz2     :     0.005269  d :     0.111725
      dxz     :     0.009362
      dyz     :     0.021982
      dx2y2   :     0.042893
      dxy     :     0.032220

 24 N s       :     3.143996  s :     3.143996
      pz      :     1.546397  p :     3.355349
      px      :     0.964789
      py      :     0.844162
      dz2     :     0.021790  d :     0.177949
      dxz     :     0.032309
      dyz     :     0.010120
      dx2y2   :     0.058030
      dxy     :     0.055699

 25 C s       :     3.303844  s :     3.303844
      pz      :     0.786758  p :     2.514559
      px      :     0.809111
      py      :     0.918690
      dz2     :     0.005248  d :     0.110368
      dxz     :     0.009436
      dyz     :     0.021865
      dx2y2   :     0.042503
      dxy     :     0.031316

 26 O s       :     3.859005  s :     3.859005
      pz      :     1.435279  p :     4.516397
      px      :     1.696784
      py      :     1.384334
      dz2     :     0.005838  d :     0.026864
      dxz     :     0.006248
      dyz     :     0.006862
      dx2y2   :     0.000636
      dxy     :     0.007280

 27 O s       :     3.862069  s :     3.862069
      pz      :     1.443476  p :     4.536383
      px      :     1.701619
      py      :     1.391288
      dz2     :     0.006271  d :     0.028262
      dxz     :     0.005448
      dyz     :     0.007683
      dx2y2   :     0.002390
      dxy     :     0.006471

 28 O s       :     3.859003  s :     3.859003
      pz      :     1.435316  p :     4.516360
      px      :     1.696697
      py      :     1.384347
      dz2     :     0.005836  d :     0.026850
      dxz     :     0.006247
      dyz     :     0.006857
      dx2y2   :     0.000637
      dxy     :     0.007274

 29 O s       :     3.862093  s :     3.862093
      pz      :     1.443398  p :     4.536385
      px      :     1.701706
      py      :     1.391280
      dz2     :     0.006270  d :     0.028274
      dxz     :     0.005448
      dyz     :     0.007687
      dx2y2   :     0.002385
      dxy     :     0.006483

 30 C s       :     3.256410  s :     3.256410
      pz      :     0.942394  p :     2.883751
      px      :     0.819084
      py      :     1.122274
      dz2     :     0.014148  d :     0.056065
      dxz     :     0.012802
      dyz     :     0.007464
      dx2y2   :     0.017345
      dxy     :     0.004307

 31 C s       :     3.256455  s :     3.256455
      pz      :     0.942379  p :     2.883781
      px      :     0.819100
      py      :     1.122302
      dz2     :     0.014149  d :     0.056065
      dxz     :     0.012802
      dyz     :     0.007463
      dx2y2   :     0.017345
      dxy     :     0.004307

 32 C s       :     3.232222  s :     3.232222
      pz      :     0.901289  p :     2.989556
      px      :     1.035579
      py      :     1.052688
      dz2     :     0.011335  d :     0.037964
      dxz     :     0.006737
      dyz     :     0.007406
      dx2y2   :     0.010207
      dxy     :     0.002279

 33 C s       :     3.232720  s :     3.232720
      pz      :     0.901544  p :     2.989516
      px      :     1.035914
      py      :     1.052058
      dz2     :     0.011344  d :     0.037966
      dxz     :     0.006690
      dyz     :     0.007449
      dx2y2   :     0.010215
      dxy     :     0.002268

 34 C s       :     3.357869  s :     3.357869
      pz      :     1.000639  p :     3.138381
      px      :     1.069743
      py      :     1.067998
      dz2     :     0.007858  d :     0.028164
      dxz     :     0.005597
      dyz     :     0.004495
      dx2y2   :     0.008325
      dxy     :     0.001890

 35 C s       :     3.358157  s :     3.358157
      pz      :     1.002272  p :     3.138833
      px      :     1.070576
      py      :     1.065985
      dz2     :     0.007839  d :     0.028165
      dxz     :     0.005679
      dyz     :     0.004403
      dx2y2   :     0.008342
      dxy     :     0.001903

 36 C s       :     3.231542  s :     3.231542
      pz      :     0.901294  p :     2.989432
      px      :     1.035376
      py      :     1.052762
      dz2     :     0.011352  d :     0.037964
      dxz     :     0.006703
      dyz     :     0.007414
      dx2y2   :     0.010210
      dxy     :     0.002284

 37 C s       :     3.233350  s :     3.233350
      pz      :     0.901513  p :     2.989629
      px      :     1.036141
      py      :     1.051975
      dz2     :     0.011329  d :     0.037966
      dxz     :     0.006723
      dyz     :     0.007439
      dx2y2   :     0.010213
      dxy     :     0.002263

 38 C s       :     3.358131  s :     3.358131
      pz      :     1.001804  p :     3.138377
      px      :     1.069463
      py      :     1.067110
      dz2     :     0.007864  d :     0.028167
      dxz     :     0.005631
      dyz     :     0.004421
      dx2y2   :     0.008334
      dxy     :     0.001917

 39 C s       :     3.357905  s :     3.357905
      pz      :     1.001093  p :     3.138828
      px      :     1.070872
      py      :     1.066863
      dz2     :     0.007835  d :     0.028162
      dxz     :     0.005644
      dyz     :     0.004474
      dx2y2   :     0.008334
      dxy     :     0.001875

 40 H s       :     0.853562  s :     0.853562
      pz      :     0.004059  p :     0.019857
      px      :     0.005332
      py      :     0.010465

 41 H s       :     0.797496  s :     0.797496
      pz      :     0.003530  p :     0.019637
      px      :     0.006291
      py      :     0.009816

 42 H s       :     0.797272  s :     0.797272
      pz      :     0.003527  p :     0.019627
      px      :     0.006369
      py      :     0.009731

 43 H s       :     0.853684  s :     0.853684
      pz      :     0.004059  p :     0.019855
      px      :     0.005258
      py      :     0.010539

 44 H s       :     0.853592  s :     0.853592
      pz      :     0.004059  p :     0.019856
      px      :     0.005332
      py      :     0.010466

 45 H s       :     0.797505  s :     0.797505
      pz      :     0.003530  p :     0.019637
      px      :     0.006292
      py      :     0.009815

 46 H s       :     0.797269  s :     0.797269
      pz      :     0.003528  p :     0.019626
[...]
freq.     194.04  E(vib)   ...       0.36 
freq.     198.75  E(vib)   ...       0.35 
freq.     211.69  E(vib)   ...       0.34 
freq.     227.60  E(vib)   ...       0.33 
freq.     240.96  E(vib)   ...       0.31 
freq.     255.59  E(vib)   ...       0.30 
freq.     257.31  E(vib)   ...       0.30 
freq.     273.26  E(vib)   ...       0.29 
freq.     274.54  E(vib)   ...       0.28 
freq.     292.86  E(vib)   ...       0.27 
freq.     306.68  E(vib)   ...       0.26 
freq.     314.59  E(vib)   ...       0.25 
freq.     338.87  E(vib)   ...       0.23 
freq.     353.97  E(vib)   ...       0.22 
freq.     364.16  E(vib)   ...       0.22 
freq.     364.28  E(vib)   ...       0.22 
freq.     371.63  E(vib)   ...       0.21 
freq.     397.73  E(vib)   ...       0.20 
freq.     402.84  E(vib)   ...       0.19 
freq.     427.23  E(vib)   ...       0.18 
freq.     428.03  E(vib)   ...       0.18 
freq.     429.61  E(vib)   ...       0.18 
freq.     431.69  E(vib)   ...       0.18 
freq.     433.84  E(vib)   ...       0.17 
freq.     439.71  E(vib)   ...       0.17 
freq.     444.15  E(vib)   ...       0.17 
freq.     461.08  E(vib)   ...       0.16 
freq.     481.56  E(vib)   ...       0.15 
freq.     494.63  E(vib)   ...       0.14 
freq.     505.92  E(vib)   ...       0.14 
freq.     511.44  E(vib)   ...       0.14 
freq.     517.45  E(vib)   ...       0.13 
freq.     526.05  E(vib)   ...       0.13 
freq.     545.52  E(vib)   ...       0.12 
freq.     557.37  E(vib)   ...       0.12 
freq.     572.32  E(vib)   ...       0.11 
freq.     579.05  E(vib)   ...       0.11 
freq.     598.78  E(vib)   ...       0.10 
freq.     605.36  E(vib)   ...       0.10 
freq.     608.89  E(vib)   ...       0.10 
freq.     610.11  E(vib)   ...       0.10 
freq.     625.34  E(vib)   ...       0.09 
freq.     626.36  E(vib)   ...       0.09 
freq.     719.70  E(vib)   ...       0.07 
freq.     720.76  E(vib)   ...       0.07 
freq.     728.77  E(vib)   ...       0.06 
freq.     748.83  E(vib)   ...       0.06 
freq.     750.40  E(vib)   ...       0.06 
freq.     752.61  E(vib)   ...       0.06 
freq.     763.81  E(vib)   ...       0.06 
freq.     785.43  E(vib)   ...       0.05 
freq.     788.99  E(vib)   ...       0.05 
freq.     796.99  E(vib)   ...       0.05 
freq.     800.94  E(vib)   ...       0.05 
freq.     807.46  E(vib)   ...       0.05 
freq.     807.99  E(vib)   ...       0.05 
freq.     823.63  E(vib)   ...       0.05 
freq.     833.01  E(vib)   ...       0.04 
freq.     840.85  E(vib)   ...       0.04 
freq.     851.20  E(vib)   ...       0.04 
freq.     853.55  E(vib)   ...       0.04 
freq.     854.10  E(vib)   ...       0.04 
freq.     858.21  E(vib)   ...       0.04 
freq.     865.05  E(vib)   ...       0.04 
freq.     919.45  E(vib)   ...       0.03 
freq.     922.39  E(vib)   ...       0.03 
freq.     936.75  E(vib)   ...       0.03 
freq.     936.76  E(vib)   ...       0.03 
freq.     943.82  E(vib)   ...       0.03 
freq.     973.99  E(vib)   ...       0.03 
freq.     976.55  E(vib)   ...       0.03 
freq.     982.92  E(vib)   ...       0.02 
freq.     983.82  E(vib)   ...       0.02 
freq.     986.01  E(vib)   ...       0.02 
freq.     994.94  E(vib)   ...       0.02 
freq.    1023.26  E(vib)   ...       0.02 
freq.    1023.26  E(vib)   ...       0.02 
freq.    1047.75  E(vib)   ...       0.02 
freq.    1047.76  E(vib)   ...       0.02 
freq.    1052.61  E(vib)   ...       0.02 
freq.    1056.15  E(vib)   ...       0.02 
freq.    1072.36  E(vib)   ...       0.02 
freq.    1094.73  E(vib)   ...       0.02 
freq.    1112.98  E(vib)   ...       0.01 
freq.    1113.36  E(vib)   ...       0.01 
freq.    1123.76  E(vib)   ...       0.01 
freq.    1123.77  E(vib)   ...       0.01 
freq.    1158.15  E(vib)   ...       0.01 
freq.    1163.75  E(vib)   ...       0.01 
freq.    1165.53  E(vib)   ...       0.01 
freq.    1183.58  E(vib)   ...       0.01 
freq.    1191.14  E(vib)   ...       0.01 
freq.    1209.96  E(vib)   ...       0.01 
freq.    1210.00  E(vib)   ...       0.01 
freq.    1219.78  E(vib)   ...       0.01 
freq.    1225.13  E(vib)   ...       0.01 
freq.    1227.51  E(vib)   ...       0.01 
freq.    1231.98  E(vib)   ...       0.01 
freq.    1253.08  E(vib)   ...       0.01 
freq.    1272.34  E(vib)   ...       0.01 
freq.    1278.89  E(vib)   ...       0.01 
freq.    1278.89  E(vib)   ...       0.01 
freq.    1307.91  E(vib)   ...       0.01 
freq.    1314.07  E(vib)   ...       0.01 
freq.    1314.07  E(vib)   ...       0.01 
freq.    1321.85  E(vib)   ...       0.01 
freq.    1322.77  E(vib)   ...       0.01 
freq.    1329.17  E(vib)   ...       0.01 
freq.    1329.87  E(vib)   ...       0.01 
freq.    1352.20  E(vib)   ...       0.01 
freq.    1356.23  E(vib)   ...       0.01 
freq.    1364.65  E(vib)   ...       0.01 
freq.    1366.35  E(vib)   ...       0.01 
freq.    1382.17  E(vib)   ...       0.01 
freq.    1383.14  E(vib)   ...       0.01 
freq.    1386.61  E(vib)   ...       0.00 
freq.    1386.62  E(vib)   ...       0.00 
freq.    1391.96  E(vib)   ...       0.00 
freq.    1405.51  E(vib)   ...       0.00 
freq.    1405.52  E(vib)   ...       0.00 
freq.    1407.56  E(vib)   ...       0.00 
freq.    1407.69  E(vib)   ...       0.00 
freq.    1416.36  E(vib)   ...       0.00 
freq.    1427.47  E(vib)   ...       0.00 
freq.    1432.63  E(vib)   ...       0.00 
freq.    1434.09  E(vib)   ...       0.00 
freq.    1464.36  E(vib)   ...       0.00 
freq.    1476.93  E(vib)   ...       0.00 
freq.    1476.95  E(vib)   ...       0.00 
freq.    1485.85  E(vib)   ...       0.00 
freq.    1486.27  E(vib)   ...       0.00 
freq.    1488.96  E(vib)   ...       0.00 
freq.    1490.90  E(vib)   ...       0.00 
freq.    1492.81  E(vib)   ...       0.00 
freq.    1492.82  E(vib)   ...       0.00 
freq.    1493.44  E(vib)   ...       0.00 
freq.    1493.87  E(vib)   ...       0.00 
freq.    1498.41  E(vib)   ...       0.00 
freq.    1498.41  E(vib)   ...       0.00 
freq.    1499.62  E(vib)   ...       0.00 
freq.    1499.72  E(vib)   ...       0.00 
freq.    1504.00  E(vib)   ...       0.00 
freq.    1540.83  E(vib)   ...       0.00 
freq.    1564.14  E(vib)   ...       0.00 
freq.    1599.43  E(vib)   ...       0.00 
freq.    1608.86  E(vib)   ...       0.00 
freq.    1613.07  E(vib)   ...       0.00 
freq.    1629.20  E(vib)   ...       0.00 
freq.    1635.20  E(vib)   ...       0.00 
freq.    1646.47  E(vib)   ...       0.00 
freq.    1690.40  E(vib)   ...       0.00 
freq.    1691.20  E(vib)   ...       0.00 
freq.    1730.10  E(vib)   ...       0.00 
freq.    1733.69  E(vib)   ...       0.00 
freq.    3009.24  E(vib)   ...       0.00 
freq.    3009.26  E(vib)   ...       0.00 
freq.    3009.94  E(vib)   ...       0.00 
freq.    3009.95  E(vib)   ...       0.00 
freq.    3016.64  E(vib)   ...       0.00 
freq.    3016.64  E(vib)   ...       0.00 
freq.    3023.51  E(vib)   ...       0.00 
freq.    3023.58  E(vib)   ...       0.00 
freq.    3068.16  E(vib)   ...       0.00 
freq.    3068.18  E(vib)   ...       0.00 
freq.    3078.51  E(vib)   ...       0.00 
freq.    3078.51  E(vib)   ...       0.00 
freq.    3084.52  E(vib)   ...       0.00 
freq.    3084.52  E(vib)   ...       0.00 
freq.    3096.39  E(vib)   ...       0.00 
freq.    3096.39  E(vib)   ...       0.00 
freq.    3098.18  E(vib)   ...       0.00 
freq.    3098.30  E(vib)   ...       0.00 
freq.    3102.09  E(vib)   ...       0.00 
freq.    3102.10  E(vib)   ...       0.00 
freq.    3107.67  E(vib)   ...       0.00 
freq.    3107.68  E(vib)   ...       0.00 
freq.    3188.88  E(vib)   ...       0.00 
freq.    3189.02  E(vib)   ...       0.00 
freq.    3194.02  E(vib)   ...       0.00 
freq.    3194.03  E(vib)   ...       0.00 
freq.    3201.84  E(vib)   ...       0.00 
freq.    3202.02  E(vib)   ...       0.00 
freq.    3211.24  E(vib)   ...       0.00 
freq.    3211.42  E(vib)   ...       0.00 

------------
INNER ENERGY
------------

The inner energy is: U= E(el) + E(ZPE) + E(vib) + E(rot) + E(trans)
    E(el)   - is the total energy from the electronic structure calculation
              = E(kin-el) + E(nuc-el) + E(el-el) + E(nuc-nuc)
    E(ZPE)  - the the zero temperature vibrational energy from the frequency calculation
    E(vib)  - the the finite temperature correction to E(ZPE) due to population
              of excited vibrational states
    E(rot)  - is the rotational thermal energy
    E(trans)- is the translational thermal energy

Summary of contributions to the inner energy U:
Electronic energy                ...  -1723.91123563 Eh
Zero point energy                ...      0.56461193 Eh     354.30 kcal/mol
Thermal vibrational correction   ...      0.03156212 Eh      19.81 kcal/mol
Thermal rotational correction    ...      0.00141627 Eh       0.89 kcal/mol
Thermal translational correction ...      0.00141627 Eh       0.89 kcal/mol
-----------------------------------------------------------------------
Total thermal energy                  -1723.31222904 Eh


Summary of corrections to the electronic energy:
(perhaps to be used in another calculation)
Total thermal correction                  0.03439466 Eh      21.58 kcal/mol
Non-thermal (ZPE) correction              0.56461193 Eh     354.30 kcal/mol
-----------------------------------------------------------------------
Total correction                          0.59900659 Eh     375.88 kcal/mol


--------
ENTHALPY
--------

The enthalpy is H = U + kB*T
                kB is Boltzmann's constant
Total thermal energy              ...  -1723.31222904 Eh 
Thermal Enthalpy correction       ...      0.00094421 Eh       0.59 kcal/mol
-----------------------------------------------------------------------
Total Enthalpy                    ...  -1723.31128483 Eh


WARNING (ORCA/SYM): A non-planar off-center atom subset has been encountered
in function TSymmetryFinder::FilterSubsetShapes() which cannot occur under
regular conditions. The full point group may not be assigned correctly. If the
symmetry appears to be too low, please try increasing the cleaning tolerance
using option SymThresh in the %symmetry input block. If the problem persists,
you may post a message in the ORCA forum.

WARNING (ORCA/SYM): A non-planar off-center atom subset has been encountered
in function TSymmetryFinder::FilterSubsetShapes() which cannot occur under
regular conditions. The full point group may not be assigned correctly. If the
symmetry appears to be too low, please try increasing the cleaning tolerance
using option SymThresh in the %symmetry input block. If the problem persists,
you may post a message in the ORCA forum.

WARNING (ORCA/SYM): A non-planar off-center atom subset has been encountered
in function TSymmetryFinder::FilterSubsetShapes() which cannot occur under
regular conditions. The full point group may not be assigned correctly. If the
symmetry appears to be too low, please try increasing the cleaning tolerance
using option SymThresh in the %symmetry input block. If the problem persists,
you may post a message in the ORCA forum.

Note: Only C1 symmetry has been detected, increase convergence thresholds 
      if your molecule has a higher symmetry. Symmetry factor of 1.0 is   
      used for the rotational entropy correction. 
 

Note: Rotational entropy computed according to Herzberg 
Infrared and Raman Spectra, Chapter V,1, Van Nostrand Reinhold, 1945 
Point Group:  C1, Symmetry Number:   1  
Rotational constants in cm-1:     0.009650     0.001204     0.001144 

Vibrational entropy computed according to the QRRHO of S. Grimme
Chem.Eur.J. 2012 18 9955 using a reference frequency of 100.0 cm-1


-------
ENTROPY
-------

The entropy contributions are T*S = T*(S(el)+S(vib)+S(rot)+S(trans))
     S(el)   - electronic entropy
     S(vib)  - vibrational entropy
     S(rot)  - rotational entropy
     S(trans)- translational entropy
The entropies will be listed as multiplied by the temperature to get
units of energy

Electronic entropy                ...      0.00000000 Eh      0.00 kcal/mol
Vibrational entropy               ...      0.05604566 Eh     35.17 kcal/mol
Rotational entropy                ...      0.01807279 Eh     11.34 kcal/mol
Translational entropy             ...      0.02123483 Eh     13.33 kcal/mol
-----------------------------------------------------------------------
Final entropy term                ...      0.09535328 Eh     59.83 kcal/mol

In case the symmetry of your molecule has not been determined correctly
or in case you have a reason to use a different symmetry number we print 
out the resulting rotational entropy values for sn=1,12:

 non-linear molecules -----------------------------------
|  sn= 1 | S(rot)=       0.01807279 Eh     11.34 kcal/mol|
|  sn= 2 | S(rot)=       0.01741833 Eh     10.93 kcal/mol|
|  sn= 3 | S(rot)=       0.01703550 Eh     10.69 kcal/mol|
|  sn= 4 | S(rot)=       0.01676388 Eh     10.52 kcal/mol|
|  sn= 5 | S(rot)=       0.01655319 Eh     10.39 kcal/mol|
|  sn= 6 | S(rot)=       0.01638104 Eh     10.28 kcal/mol|
|  sn= 7 | S(rot)=       0.01623550 Eh     10.19 kcal/mol|
|  sn= 8 | S(rot)=       0.01610942 Eh     10.11 kcal/mol|
|  sn= 9 | S(rot)=       0.01599821 Eh     10.04 kcal/mol|
|  sn=10 | S(rot)=       0.01589873 Eh      9.98 kcal/mol|
|  sn=11 | S(rot)=       0.01580874 Eh      9.92 kcal/mol|
|  sn=12 | S(rot)=       0.01572659 Eh      9.87 kcal/mol|
 linear molecules ---------------------------------------
|  Dinfh | S(rot)=       0.01172094 Eh      7.35 kcal/mol|
|  Cinfv | S(rot)=       0.01237540 Eh      7.77 kcal/mol|
 --------------------------------------------------------


-------------------
GIBBS FREE ENERGY
-------------------

The Gibbs free energy is G = H - T*S

Total enthalpy                    ...  -1723.31128483 Eh 
Total entropy correction          ...     -0.09535328 Eh    -59.83 kcal/mol
-----------------------------------------------------------------------
Final Gibbs free energy         ...  -1723.40663811 Eh

For completeness - the Gibbs free energy minus the electronic energy
G-E(el)                           ...      0.50459752 Eh    316.64 kcal/mol


Maximum memory used throughout the entire PROP-calculation: 144.4 MB

--------------------------------
SUGGESTED CITATIONS FOR THIS RUN
--------------------------------

Below you find a list of papers that are relevant to this ORCA run
We neither can nor want to force you to cite these papers, but we appreciate if you do
You receive ORCA, which is the product of decades of hard work by many enthusiastic individuals, for free
The only thing we kindly ask in return is that you cite our papers,
We deeply appreciate it, if you show your appreciation for ORCA by not just citing the generic ORCA reference.

Please note that relegating all ORCA citations to the supporting information does *not* help us.
SI sections are not indexed - citations you put there will not count into any citation statistics
But we need these citations in order to attract the funding resources that allow us to do what we are doing

Therefore, if you are a happy ORCA user, please consider citing a few of the papers listed below in the main body of your paper

In addition to the list printed below, the program has created the file pdi_terminal_functionalized_freq.bibtex that contains the list in bibtex format
You can import this file easily into all common literature databanks and citation aid programs

It goes without saying that in many instances, there are alternative algorithms to achieve similar
results as the ones you have gotten from ORCA. It is, of course, also the case that in some instances
ORCA just re-implements algorithms worked out by others. We are fully aware of that and we are also
fully appreciative of our colleagues work. Hence this citation list should not be read as indicating
that the listed papers, which are focused on our own work, are the only ones worth citing. It simply
meant to make it easier for users to cite ORCA specific papers. It is not a substitute for doing your
own literature research and citing the relevant literature in a scientifically appropriate manner.

List of essential papers. We consider these as the minimum necessary citations

  1. Grimme, S.; Hansen, A.; Ehlert, S.; Mewes, J.
     r2SCAN-3c: A 'Swiss army knife' composite electronic-structure method
     J. Chem. Phys. 2021 154 , 064103
     doi.org/10.1063/5.0040021
  2. Neese, F.
     Software update: the ORCA program system, version 6.0
     WIRES Comput. Molec. Sci. 2025 15(1), e70019
     doi.org/10.1002/wcms.70019

List of papers to cite with high priority. The work reported in these papers was absolutely
necessary for this run to complete.
Our perspective: the developers of density functionals and basis sets usually get cited in chemistry papers
Good! But without the algorithms to do something with them, the functionals or basis sets would not do anything.
Hence, in our opinion, the algorithm design and method developments papers are equally worthy of getting cited

  1. Neese, F.
     An improvement of the resolution of the identity approximation for the formation of the Coulomb matrix
     J. Comp. Chem. 2003 24(14), 1740-1747
     doi.org/10.1002/jcc.10318
  2. Bykov, D.; Petrenko, T.; Izsak, R.; Kossmann, S.; Becker, U.; Valeev, E.; Neese, F.
     Efficient implementation of the analytic second derivatives of Hartree-Fock and hybrid DFT energies: a detailed analysis of different approximations
     Molec. Phys. 2015 113 , 1961-1977
     doi.org/10.1080/00268976.2015.1025114
  3. Caldeweyher, E.; Bannwarth, C.; Grimme, S.
     Extension of the D3 dispersion coefficient model
     J. Chem. Phys. 2017 147 , 034112
     doi.org/10.1063/1.4993215
  4. Lehtola, S.; Steigemann, C.; Oliveira, M.; Marques, M.
     Recent developments in Libxc - A comprehensive library of functionals for density functional theory
     Software X 2018 7 , 
     doi.org/10.1016/j.softx.2017.11.002
  5. Caldeweyher, E.; Ehlert, S.; Hansen, A.; Neugebauer, H.; Spicher, S.; Bannwarth, C.; Grimme, S.
     A generally applicable atomic-charge dependent London dispersion correction
     J. Chem. Phys. 2019 150 , 154122
     doi.org/10.1063/1.5090222
  6. Neese, F.
     The SHARK Integral Generation and Digestion System
     J. Comp. Chem. 2022 44(3), 381
     doi.org/10.1002/jcc.26942

List of suggested additional citations. These are papers that are important in the 'surrounding' of 
of this run, or papers that preceded the highly important papers. If you like your results we are grateful for a citation.

  1. Neese, F.
     The ORCA program system
     WIRES Comput. Molec. Sci. 2012 2(1), 73-78
     doi.org/10.1002/wcms.81
  2. Neese, F.
     Software update: the ORCA program system, version 4.0
     WIRES Comput. Molec. Sci. 2018 8(1), 1-6
     doi.org/10.1002/wcms.1327
  3. Neese, F.; Wennmohs, F.; Becker, U.; Riplinger, C.
     The ORCA quantum chemistry program package
     J. Chem. Phys. 2020 152(22), 224108
     doi.org/10.1063/5.0004608
  4. Neese, F.
     Software update: The ORCA program system—Version 5.0
     WIRES Comput. Molec. Sci. 2022 12(1), e1606
     doi.org/10.1002/wcms.1606

List of optional additional citations

  1. Neese, F.
     Approximate second-order SCF convergence for spin unrestricted wavefunctions
     Chem. Phys. Lett. 2000 325(1-3), 93-98
     doi.org/10.1016/s0009-2614(00)00662-x

Timings for individual modules:

Sum of individual times          ...     3339.790 sec (=  55.663 min)
Startup calculation              ...        2.998 sec (=   0.050 min)   0.1 %
SCF iterations                   ...       56.278 sec (=   0.938 min)   1.7 %
Property integrals               ...     1425.578 sec (=  23.760 min)  42.7 %
SCF Response                     ...     1483.745 sec (=  24.729 min)  44.4 %
Property calculations            ...      371.191 sec (=   6.187 min)  11.1 %
                             ****ORCA TERMINATED NORMALLY****
TOTAL RUN TIME: 0 days 0 hours 55 minutes 40 seconds 835 msec
