
                                 *****************
                                 * O   R   C   A *
                                 *****************

                                            #,                                       
                                            ###                                      
                                            ####                                     
                                            #####                                    
                                            ######                                   
                                           ########,                                 
                                     ,,################,,,,,                         
                               ,,#################################,,                 
                          ,,##########################################,,             
                       ,#########################################, ''#####,          
                    ,#############################################,,   '####,        
                  ,##################################################,,,,####,       
                ,###########''''           ''''###############################       
              ,#####''   ,,,,##########,,,,          '''####'''          '####       
            ,##' ,,,,###########################,,,                        '##       
           ' ,,###''''                  '''############,,,                           
         ,,##''                                '''############,,,,        ,,,,,,###''
      ,#''                                            '''#######################'''  
     '                                                          ''''####''''         
             ,#######,   #######,   ,#######,      ##                                
            ,#'     '#,  ##    ##  ,#'     '#,    #''#        ,####,    ,#,          
            ##       ##  ##   ,#'  ##            #'  '#       #'       ,# #          
            ##       ##  #######   ##           ,######,      #####,      #          
            '#,     ,#'  ##    ##  '#,     ,#' ,#      #,     #,   #      #          
             '#######'   ##     ##  '#######'  #'      '#     '####' #    #          



                #########################################################
                #                        -***-                          #
                #          Department of theory and spectroscopy        #
                #                                                       #
                #                      Frank Neese                      #
                #                                                       #
                #     Directorship, Architecture, Infrastructure        #
                #                    SHARK, DRIVERS                     #
                #        Core code/Algorithms in most modules           #
                #                                                       #
                #        Max Planck Institute fuer Kohlenforschung      #
                #                Kaiser Wilhelm Platz 1                 #
                #                 D-45470 Muelheim/Ruhr                 #
                #                      Germany                          #
                #                                                       #
                #                  All rights reserved                  #
                #                        -***-                          #
                #########################################################


                         Program Version 6.1.1  -  RELEASE   -
                                (GIT: $487d211cc3$)
                          ($2025-11-21 10:33:24 +0100$)


 With contributions from (in alphabetic order):
[Max-Planck-Institut fuer Kohlenforschung]                               
  Daniel Aravena         : Magnetic Suceptibility                        
  Michael Atanasov       : Ab Initio Ligand Field Theory (pilot matlab implementation)
  Alexander A. Auer      : GIAO ZORA, VPT2 properties, NMR spectrum      
  Ute Becker             : All parallelization in ORCA, NUMFREQ, NUMCALC 
  Giovanni Bistoni       : ED, misc. LED, open-shell LED, HFLD           
  Dmytro Bykov           : pre 5.0 version of the SCF Hessian            
  Marcos Casanova-Páez   : Triplet and SCS-CIS(D). UHF-(DLPNO)-IP/EA/STEOM-CCSD. UHF-CVS-IP/STEOM-CCSD   
  Vijay G. Chilkuri      : MRCI spin determinant printing, contributions to CSF-ICE 
  Pauline Colinet        : FMM embedding                                 
  Dipayan Datta          : RHF DLPNO-CCSD density                        
  Achintya Kumar Dutta   : EOM-CC, STEOM-CC                              
  Nicolas Foglia         : Exact transition moments, OPA infrastructure, MCD improvements    
  Dmitry Ganyushin       : Spin-Orbit,Spin-Spin,Magnetic field MRCI      
  Miquel Garcia-Rates    : C-PCM and meta-GGA Hessian, CCSD/C-PCM, Gaussian charge scheme 
  Tiago L. C. Gouveia    : GS-ROHF, GS-ROCIS                             
  Yang Guo               : DLPNO-NEVPT2, F12-NEVPT2, CIM, IAO-localization        
  Andreas Hansen         : Spin unrestricted coupled pair/coupled cluster methods 
  Ingolf Harden          : AUTO-CI MPn and infrastructure                
  Benjamin Helmich-Paris : MC-RPA, TRAH-(SCF,CASSCF), AVAS, COSX integrals, SCF dyn. polar., MC-PDFT, srDFT 
  Lee Huntington         : MR-EOM, pCC                                   
  Robert Izsak           : Overlap fitted RIJCOSX, COSX-SCS-MP3, EOM     
  Riya Kayal             : Wick's Theorem for AUTO-CI, AUTO-CI UHF-CCSDT 
  Emily Kempfer          : AUTO-CI RHF CISDT and CCSDT, approximate NEVPT4
  Christian Kollmar      : KDIIS, OOCD, Brueckner-CCSD(T), CCSD density, CASPT2, CASPT2-K, improved NEVPT2 
  Axel Koslowski         : Symmetry handling                             
  Simone Kossmann        : meta-GGA functionals, TD-DFT gradient, OOMP2, (MP2 Hessian; deprecated post 5.0) 
  Lucas Lang             : DCDCAS, Hyperfine gauge corrections, ICE-SOC+SSC
  Marvin Lechner         : AUTO-CI (C++ implementation), FIC-MRCC        
  Spencer Leger          : CASSCF response                               
  Dagmar Lenk            : GEPOL surface, SMD, ORCA-2-JSON               
  Dimitrios Liakos       : Extrapolation schemes; Compound Job, Property file
  Dimitrios Manganas     : Further ROCIS development; embedding schemes. LFT, Crystal Embedding 
  Dimitrios Pantazis     : SARC Basis sets                               
  Anastasios Papadopoulos: AUTO-CI, single reference methods and gradients 
  Taras Petrenko         : pre 6.0 DFT Hessian and TD-DFT gradient,  ECA, NRVS 
  Petra Pikulova         : Analytic Raman intensities                    
  Peter Pinski           : DLPNO-MP2, DLPNO-MP2 Gradient                 
  Shashank Vittal Rao    : ES-AILFT, MagRelax                            
  Christoph Reimann      : Effective Core Potentials                     
  Marius Retegan         : Local ZFS, SOC                                
  Christoph Riplinger    : Optimizer, TS searches, QM/MM, DLPNO-CCSD(T), (RO)-DLPNO pert. Triples 
  Michael Roemelt        : Original ROCIS implementation, recursive CI coupling coefficients
  Masaaki Saitow         : Open-shell DLPNO-CCSD energy and density      
  Barbara Sandhoefer     : DKH picture change effects                    
  Yorick L. A. Schmerwitz: GMF and freeze-and-release deltaSCF, NEB S-IDPP initial path                    
  Kantharuban Sivalingam : CASSCF convergence/infrastructure, NEVPT2, NEVPT3, NEVPT4(SD), FIC-MRCI and CEPA variants
  Bernardo de Souza      : ESD, SOC TD-DFT                               
  Georgi L. Stoychev     : AutoAux, RI-MP2 NMR, DLPNO-MP2 response, X2C  
  Van Anh Tran           : RI-MP2 g-tensors                              
  Willem Van den Heuvel  : Paramagnetic NMR                              
  Zikuan Wang            : NOTCH, Electric field optimization            
  Frank Wennmohs         : Technical directorship and infrastructure     
  Hang Xu                : AUTO-CI-Response properties                   
                                                                         
[FACCTs GmbH]                                                            
  Markus Bursch, Nicolas Foglia, Miquel Garcia-Rates, Ingolf Harden, Hagen Neugebauer, Anastasios Papadopoulos, 
  Christoph Riplinger, Bernardo de Souza, Georgi L. Stoychev                                                    
                                                                 
  APM, various basis sets, CI-OPT, improved COSX, DLPNO-Multilevel,           
  DOCKER, DRACO, updates on ESD, Fragmentator, GOAT, IRC, LR-CPCM, L-BFGS, MBIS, meta-GGA TD-DFT gradient, ML-optimized integration grids, 
  MM, NACMEs, nearIR, NEB, NEB-TS, NL-DFT gradient (VV10), 2- and 3-layer-ONIOM, interface openCOSMO-RS, QMMM,   
  Crystal-QMMM, RESP, rigid body optimization, SF, symmetry and pop. for TD-DFT, various functionals, SOLVATOR                                   
                                                                         
[Other institutions]                                                     
  V. Asgeirsson          : NEB                                           
  Christoph Bannwarth    : sTDA-DFT, sTD-DFT, PBEh-3c, B97-3c, D3        
  Giovanni Bistoni       : ETS/NOCV, ADLD/ADEX, COVALED                  
  Martin Brehm           : Molecular dynamics                            
  Ronald Cardenas        : ETS/NOCV                                      
  Martina Colucci        : COVALED                                       
  Sebastian Ehlert       : rSCAN, r2SCAN, r2SCAN-3c, D4, dhf basis sets  
  Marvin Friede          : D4 for Fr, Ra, Ac-Lr                          
  Lars Goerigk           : TD-DFT with DH, B97 family of functionals     
  Stefan Grimme          : VdW corrections, initial TS optimization, DFT functionals, gCP, sTDA/sTD-DF 
  Waldemar Hujo          : DFT-NL                                        
  H. Jonsson             : NEB                                           
  Holger Kruse           : gCP                                           
  Marcel Mueller         : wB97X-3c, vDZP basis set                      
  Hagen Neugebauer       : wr2SCAN, Native XTB                           
  Gianluca Regni         : ADLD/ADEX                                     
  Tobias Risthaus        : pre 6.0 range-separated hybrid DFT and stability analysis
  Lukas Wittmann         : regularized MP2, r2SCAN double-hybrids, wr2SCAN        
                                                                         
We gratefully acknowledge several colleagues who have allowed us to      
interface, adapt or use parts of their codes:                            
  Ed Valeev, F. Pavosevic, A. Kumar             : LibInt (2-el integral package), F12 methods 
  Garnet Chan, S. Sharma, J. Yang, R. Olivares  : DMRG                   
  Ulf Ekstrom                                   : XCFun DFT Library      
  Mihaly Kallay                                 : mrcc  (arbitrary order and MRCC methods)
  Frank Weinhold                                : gennbo (NPA and NBO analysis)           
  Simon Mueller                                 : openCOSMO-RS                            
  Christopher J. Cramer and Donald G. Truhlar   : smd solvation model                     
  S Lehtola, MJT Oliveira, MAL Marques          : LibXC Library                           
  Liviu Ungur et al                             : ANISO software                          


 Your calculation uses the libint2 library for the computation of 2-el integrals
 For citations please refer to: http://libint.valeyev.net

 Your ORCA version has been built with support for libXC version: 7.0.0
 For citations please refer to: https://libxc.gitlab.io

 This ORCA versions uses:
   CBLAS   interface :  Fast vector & matrix operations
   LAPACKE interface :  Fast linear algebra routines
   SCALAPACK package :  Parallel linear algebra routines
   Shared memory     :  Shared parallel matrices


  ***********************************
  * Starting time: Mon Jul 13 19:36:09 2026
  * Host name:     Angzes-MacBook-Pro.local
  * Process ID:    76685
  * Working dir.:  /Users/liangze/Desktop/Tsinghua 2026 Summer/pdi_h2o2_production/pdi-theory-demo/calculations/pdi_terminal_functionalized/geometry_optimization
  ***********************************

NOTE: MaxCore=8000 MB was set to SCF,MP2,MDCI,CIPSI,MRCI,RASCI and CIS
      => If you want to overwrite this, your respective input block should be placed after the MaxCore statement


***************************************
The coordinates will be read from file: pdi_terminal_functionalized_structure_initial.xyz
***************************************


Your calculation utilizes the geometrical counterpoise correction gCP
Please cite in your paper:
H.Kruse, S. Grimme J.Chem.Phys., 136, (2012), 154101 
   

Your calculation utilizes the atom-pairwise dispersion correction
based on EEQ partial charges (D4)


================================================================================

----- Orbital basis set information -----
Your calculation utilizes the basis: def2-mTZVPP
   Stefan Grimme, Andreas Hansen, Sebastian Ehlert, and Jan-Michael Mewes 
   J. Chem. Phys. 154, 064103 (2021). DOI: 10.1063/5.0040021

----- AuxJ basis set information -----
Your calculation utilizes the basis: def2-mTZVPP/J
   Stefan Grimme, Andreas Hansen, Sebastian Ehlert, and Jan-Michael Mewes 
   J. Chem. Phys. 154, 000000 (2021). DOI: 10.1063/5.0040021

================================================================================
                                        WARNINGS
                       Please study these warnings very carefully!
================================================================================



WARNING: SCAN, rSCAN, or r2SCAN functional requested.
  ===> : libXC variant has now been activated.



WARNING: Geometry Optimization
  ===> : Switching off AutoStart
         For restart on a previous wavefunction, please use MOREAD

================================================================================
                                       INPUT FILE
================================================================================
NAME = pdi_terminal_functionalized_opt.inp
|  1> ! r2SCAN-3c Opt TightSCF
|  2> 
|  3> %maxcore 8000
|  4> 
|  5> * xyzfile 0 1 pdi_terminal_functionalized_structure_initial.xyz
|  6> 
|  7>                          ****END OF INPUT****
================================================================================

                       *****************************
                       * Geometry Optimization Run *
                       *****************************

Geometry optimization settings:
Update method            Update   .... BFGS
Choice of coordinates    CoordSys .... (2022) Redundant Internals
Initial Hessian          InHess   .... Almloef's Model
Max. no of cycles        MaxIter  .... 210

Convergence Tolerances:
Energy Change            TolE     ....  5.0000e-06 Eh
Max. Gradient            TolMAXG  ....  3.0000e-04 Eh/bohr
RMS Gradient             TolRMSG  ....  1.0000e-04 Eh/bohr
Max. Displacement        TolMAXD  ....  4.0000e-03 bohr
RMS Displacement         TolRMSD  ....  2.0000e-03 bohr
Strict Convergence                .... False

------------------------------------------------------------------------------
                        ORCA OPTIMIZATION COORDINATE SETUP
------------------------------------------------------------------------------

The optimization will be done in redundant internal coordinates (2022)
Making redundant internal coordinates   ...  (2022 redundants) done
Evaluating the initial hessian          ...  (Almloef) done
Evaluating the coordinates              ...  done
Calculating the B-matrix                .... done
Calculating the G-matrix                .... done
The number of degrees of freedom        ....  400

    -----------------------------------------------------------------
                    Redundant Internal Coordinates


    -----------------------------------------------------------------
         Definition                    Initial Value    Approx d2E/dq
    -----------------------------------------------------------------
      1. B(C   1,C   0)                  1.4342         0.531233   
      2. B(C   2,C   1)                  1.4205         0.558470   
      3. B(C   3,C   2)                  1.4200         0.559527   
      4. B(C   4,C   3)                  1.4336         0.532371   
      5. B(C   5,C   4)                  1.4207         0.558256   
      6. B(C   5,C   0)                  1.4203         0.559026   
      7. B(C   6,C   1)                  1.4166         0.566555   
      8. B(C   7,C   6)                  1.3936         0.616653   
      9. B(C   8,C   7)                  1.3902         0.624265   
     10. B(C   9,C   8)                  1.3915         0.621307   
     11. B(C   9,C   2)                  1.4350         0.529676   
     12. B(C  10,C   9)                  1.3911         0.622231   
     13. B(C  11,C  10)                  1.3895         0.625841   
     14. B(C  12,C  11)                  1.3921         0.620104   
     15. B(C  12,C   3)                  1.4157         0.568605   
     16. B(C  13,C   4)                  1.4162         0.567455   
     17. B(C  14,C  13)                  1.3930         0.617843   
     18. B(C  15,C  14)                  1.3901         0.624517   
     19. B(C  16,C  15)                  1.3917         0.620904   
     20. B(C  16,C   5)                  1.4354         0.528872   
     21. B(C  17,C  16)                  1.3912         0.622116   
     22. B(C  18,C  17)                  1.3899         0.624968   
     23. B(C  19,C  18)                  1.3929         0.618072   
     24. B(C  19,C   0)                  1.4158         0.568287   
     25. B(C  20,C  15)                  1.4814         0.446604   
     26. B(N  21,C  20)                  1.3924         0.554754   
     27. B(C  22,N  21)                  1.3971         0.545250   
     28. B(C  22,C  17)                  1.4811         0.447131   
     29. B(C  23,C   8)                  1.4825         0.444716   
     30. B(N  24,C  23)                  1.3933         0.552782   
     31. B(C  25,C  10)                  1.4807         0.447812   
     32. B(C  25,N  24)                  1.3968         0.545847   
     33. B(O  26,C  23)                  1.2270         1.018444   
     34. B(O  27,C  25)                  1.2297         1.008319   
     35. B(O  28,C  20)                  1.2284         1.013338   
     36. B(O  29,C  22)                  1.2290         1.011142   
     37. B(C  30,N  21)                  1.4818         0.399353   
     38. B(C  31,N  24)                  1.4819         0.399309   
     39. B(C  32,C  30)                  1.5479         0.349761   
     40. B(C  33,C  30)                  1.5474         0.350421   
     41. B(C  34,C  33)                  1.5211         0.385928   
     42. B(C  35,C  32)                  1.5239         0.381979   
     43. B(C  36,C  31)                  1.5480         0.349684   
     44. B(C  37,C  31)                  1.5470         0.350930   
     45. B(C  38,C  36)                  1.5242         0.381684   
     46. B(C  39,C  37)                  1.5210         0.386102   
     47. B(H  40,C   6)                  1.0872         0.363879   
     48. B(H  41,C   7)                  1.0891         0.361253   
     49. B(H  42,C  11)                  1.0884         0.362245   
     50. B(H  43,C  12)                  1.0866         0.364662   
     51. B(H  44,C  13)                  1.0869         0.364254   
     52. B(H  45,C  14)                  1.0893         0.361046   
     53. B(H  46,C  18)                  1.0885         0.362047   
     54. B(H  47,C  19)                  1.0869         0.364272   
     55. B(H  48,C  30)                  1.0979         0.349742   
     56. B(H  49,C  31)                  1.0979         0.349825   
     57. B(H  50,C  32)                  1.0973         0.350591   
     58. B(H  51,C  32)                  1.0961         0.352177   
     59. B(H  52,C  33)                  1.0945         0.354172   
     60. B(H  53,C  33)                  1.0982         0.349362   
     61. B(H  54,C  34)                  1.0937         0.355303   
     62. B(H  55,C  34)                  1.0951         0.353369   
     63. B(H  56,C  34)                  1.0942         0.354638   
     64. B(H  57,C  35)                  1.0947         0.353907   
     65. B(H  58,C  35)                  1.0947         0.353992   
     66. B(H  59,C  35)                  1.0940         0.354784   
     67. B(H  60,C  36)                  1.0971         0.350787   
     68. B(H  61,C  36)                  1.0960         0.352194   
     69. B(H  62,C  37)                  1.0945         0.354249   
     70. B(H  63,C  37)                  1.0982         0.349367   
     71. B(H  64,C  38)                  1.0947         0.353923   
     72. B(H  65,C  38)                  1.0946         0.354053   
     73. B(H  66,C  38)                  1.0941         0.354753   
     74. B(H  67,C  39)                  1.0936         0.355344   
     75. B(H  68,C  39)                  1.0951         0.353379   
     76. B(H  69,C  39)                  1.0942         0.354595   
     77. A(C   1,C   0,C  19)          122.9729         0.415703   
     78. A(C   5,C   0,C  19)          117.1160         0.419495   
     79. A(C   1,C   0,C   5)          119.9053         0.414490   
     80. A(C   0,C   1,C   6)          123.0177         0.415477   
     81. A(C   0,C   1,C   2)          119.9027         0.414417   
     82. A(C   2,C   1,C   6)          117.0743         0.419193   
     83. A(C   3,C   2,C   9)          119.8814         0.414340   
     84. A(C   1,C   2,C   9)          119.9961         0.414200   
     85. A(C   1,C   2,C   3)          120.1170         0.418261   
     86. A(C   2,C   3,C   4)          119.8798         0.414713   
     87. A(C   2,C   3,C  12)          117.1710         0.419604   
     88. A(C   4,C   3,C  12)          122.9446         0.415902   
     89. A(C   5,C   4,C  13)          117.0953         0.419282   
     90. A(C   3,C   4,C   5)          119.9563         0.414546   
     91. A(C   3,C   4,C  13)          122.9445         0.415752   
     92. A(C   0,C   5,C   4)          120.0655         0.418166   
     93. A(C   0,C   5,C  16)          119.9337         0.414162   
     94. A(C   4,C   5,C  16)          119.9964         0.414060   
     95. A(C   7,C   6,H  40)          115.9904         0.353209   
     96. A(C   1,C   6,H  40)          121.4825         0.348191   
     97. A(C   1,C   6,C   7)          122.4941         0.426683   
     98. A(C   6,C   7,H  41)          119.3824         0.352777   
     99. A(C   8,C   7,H  41)          120.6781         0.353510   
    100. A(C   6,C   7,C   8)          119.9331         0.434179   
    101. A(C   7,C   8,C   9)          120.0650         0.434767   
    102. A(C   9,C   8,C  23)          120.9227         0.409219   
    103. A(C   7,C   8,C  23)          118.9355         0.409563   
    104. A(C   2,C   9,C  10)          120.3205         0.422256   
    105. A(C   2,C   9,C   8)          120.3015         0.422144   
    106. A(C   8,C   9,C  10)          119.3723         0.434511   
    107. A(C   9,C  10,C  25)          121.0043         0.409830   
    108. A(C  11,C  10,C  25)          118.8923         0.410250   
    109. A(C   9,C  10,C  11)          120.1033         0.435080   
    110. A(C  12,C  11,H  42)          119.3742         0.353274   
    111. A(C  10,C  11,C  12)          119.9440         0.434812   
    112. A(C  10,C  11,H  42)          120.6783         0.353825   
    113. A(C   3,C  12,C  11)          122.4816         0.427386   
    114. A(C  11,C  12,H  43)          115.9999         0.353672   
    115. A(C   3,C  12,H  43)          121.5169         0.348529   
    116. A(C   4,C  13,C  14)          122.5056         0.426952   
    117. A(C  14,C  13,H  44)          115.9218         0.353386   
    118. A(C   4,C  13,H  44)          121.5336         0.348344   
    119. A(C  13,C  14,C  15)          119.9138         0.434361   
    120. A(C  13,C  14,H  45)          119.4208         0.352857   
    121. A(C  15,C  14,H  45)          120.6632         0.353500   
    122. A(C  14,C  15,C  16)          120.1288         0.434747   
    123. A(C  16,C  15,C  20)          120.8967         0.409479   
    124. A(C  14,C  15,C  20)          118.9038         0.409900   
    125. A(C  15,C  16,C  17)          119.4065         0.434446   
    126. A(C   5,C  16,C  17)          120.3523         0.422127   
    127. A(C   5,C  16,C  15)          120.2350         0.421980   
    128. A(C  18,C  17,C  22)          118.9856         0.410038   
    129. A(C  16,C  17,C  22)          120.9767         0.409706   
    130. A(C  16,C  17,C  18)          120.0372         0.434957   
    131. A(C  17,C  18,H  46)          120.6211         0.353709   
    132. A(C  17,C  18,C  19)          119.9848         0.434446   
    133. A(C  19,C  18,H  46)          119.3891         0.353045   
    134. A(C  18,C  19,H  47)          115.9811         0.353411   
    135. A(C   0,C  19,H  47)          121.5272         0.348433   
    136. A(C   0,C  19,C  18)          122.4883         0.427092   
    137. A(C  15,C  20,O  28)          117.9983         0.444107   
    138. A(N  21,C  20,O  28)          124.6573         0.458903   
    139. A(C  15,C  20,N  21)          117.3264         0.398840   
    140. A(C  22,N  21,C  30)          116.7561         0.387441   
    141. A(C  20,N  21,C  30)          119.7426         0.388610   
    142. A(C  20,N  21,C  22)          122.7164         0.410489   
    143. A(N  21,C  22,O  29)          124.0679         0.457278   
    144. A(C  17,C  22,O  29)          118.3347         0.444028   
    145. A(C  17,C  22,N  21)          117.5773         0.397713   
    146. A(N  24,C  23,O  26)          124.7115         0.459025   
    147. A(C   8,C  23,O  26)          117.9849         0.444171   
    148. A(C   8,C  23,N  24)          117.2762         0.398294   
    149. A(C  25,N  24,C  31)          116.6594         0.387507   
    150. A(C  23,N  24,C  31)          119.8025         0.388362   
    151. A(C  23,N  24,C  25)          122.7449         0.410310   
    152. A(N  24,C  25,O  27)          124.0342         0.457136   
    153. A(C  10,C  25,O  27)          118.3558         0.443926   
    154. A(C  10,C  25,N  24)          117.5879         0.397896   
    155. A(C  32,C  30,H  48)          106.7757         0.319310   
    156. A(N  21,C  30,H  48)          108.0512         0.324374   
    157. A(C  32,C  30,C  33)          109.5729         0.355406   
    158. A(N  21,C  30,C  33)          114.9818         0.361263   
    159. A(N  21,C  30,C  32)          111.5597         0.361147   
    160. A(C  33,C  30,H  48)          105.3869         0.319409   
    161. A(C  37,C  31,H  49)          105.3628         0.319497   
    162. A(C  36,C  31,H  49)          106.7396         0.319311   
    163. A(N  24,C  31,H  49)          108.0263         0.324381   
    164. A(C  36,C  31,C  37)          109.6003         0.355480   
    165. A(N  24,C  31,C  37)          115.1569         0.361346   
    166. A(N  24,C  31,C  36)          111.4324         0.361126   
    167. A(C  35,C  32,H  51)          108.8024         0.324319   
    168. A(C  30,C  32,H  51)          110.5763         0.319672   
    169. A(C  35,C  32,H  50)          107.8154         0.324079   
    170. A(H  50,C  32,H  51)          106.7056         0.288613   
    171. A(C  30,C  32,H  50)          109.0763         0.319437   
    172. A(C  30,C  32,C  35)          113.6014         0.360656   
    173. A(H  52,C  33,H  53)          105.4529         0.288709   
    174. A(C  34,C  33,H  53)          107.9380         0.324439   
    175. A(C  30,C  33,H  53)          108.4897         0.319352   
    176. A(C  34,C  33,H  52)          109.3168         0.325169   
    177. A(C  30,C  33,H  52)          111.6884         0.320066   
    178. A(C  30,C  33,C  34)          113.5645         0.361405   
    179. A(H  55,C  34,H  56)          107.9725         0.289285   
    180. A(H  54,C  34,H  56)          108.5745         0.289533   
    181. A(C  33,C  34,H  56)          110.9868         0.325239   
    182. A(H  54,C  34,H  55)          107.6634         0.289370   
    183. A(C  33,C  34,H  55)          109.8407         0.325048   
    184. A(C  33,C  34,H  54)          111.6722         0.325339   
    185. A(H  58,C  35,H  59)          107.4938         0.289384   
    186. A(H  57,C  35,H  59)          108.6177         0.289373   
    187. A(C  32,C  35,H  59)          111.5320         0.324712   
    188. A(H  57,C  35,H  58)          107.8707         0.289272   
    189. A(C  32,C  35,H  58)          110.0955         0.324593   
    190. A(C  32,C  35,H  57)          111.0903         0.324580   
    191. A(H  60,C  36,H  61)          106.7343         0.288640   
    192. A(C  38,C  36,H  61)          108.7978         0.324280   
    193. A(C  31,C  36,H  61)          110.5407         0.319663   
    194. A(C  38,C  36,H  60)          107.8116         0.324067   
    195. A(C  31,C  36,H  60)          109.0682         0.319454   
    196. A(C  31,C  36,C  38)          113.6263         0.360595   
    197. A(H  62,C  37,H  63)          105.4432         0.288720   
    198. A(C  39,C  37,H  63)          107.9238         0.324464   
    199. A(C  31,C  37,H  63)          108.4538         0.319428   
    200. A(C  39,C  37,H  62)          109.3703         0.325205   
    201. A(C  31,C  37,H  62)          111.7092         0.320153   
    202. A(C  31,C  37,C  39)          113.5477         0.361523   
    203. A(C  36,C  38,H  64)          111.1102         0.324541   
    204. A(H  65,C  38,H  66)          107.4631         0.289387   
    205. A(H  64,C  38,H  66)          108.6086         0.289371   
    206. A(C  36,C  38,H  66)          111.5339         0.324666   
    207. A(H  64,C  38,H  65)          107.8662         0.289281   
    208. A(C  36,C  38,H  65)          110.1158         0.324561   
    209. A(H  68,C  39,H  69)          107.9675         0.289281   
    210. A(H  67,C  39,H  69)          108.5811         0.289533   
    211. A(C  37,C  39,H  69)          110.9812         0.325257   
    212. A(H  67,C  39,H  68)          107.6907         0.289377   
    213. A(C  37,C  39,H  68)          109.8334         0.325073   
    214. A(C  37,C  39,H  67)          111.6576         0.325370   
    215. D(C   6,C   1,C   0,C   5)    175.3784         0.019265   
    216. D(C   2,C   1,C   0,C  19)    177.1479         0.019265   
    217. D(C   2,C   1,C   0,C   5)     -3.7547         0.019265   
    218. D(C   6,C   1,C   0,C  19)     -3.7190         0.019265   
    219. D(C   9,C   2,C   1,C   6)      0.9787         0.021360   
    220. D(C   3,C   2,C   1,C   0)      1.0182         0.021360   
    221. D(C   9,C   2,C   1,C   0)   -179.8377         0.021360   
    222. D(C   3,C   2,C   1,C   6)   -178.1654         0.021360   
    223. D(C  12,C   3,C   2,C   1)   -178.0032         0.021444   
    224. D(C  12,C   3,C   2,C   9)      2.8517         0.021444   
    225. D(C   4,C   3,C   2,C   1)      2.7603         0.021444   
    226. D(C   4,C   3,C   2,C   9)   -176.3848         0.021444   
    227. D(C   5,C   4,C   3,C  12)    176.9748         0.019350   
    228. D(C  13,C   4,C   3,C  12)     -3.7603         0.019350   
    229. D(C   5,C   4,C   3,C   2)     -3.8347         0.019350   
    230. D(C  13,C   4,C   3,C   2)    175.4302         0.019350   
    231. D(C  16,C   5,C   4,C  13)      1.0303         0.021343   
    232. D(C  16,C   5,C   0,C   1)   -176.5575         0.021404   
    233. D(C   0,C   5,C   4,C   3)      1.0991         0.021343   
    234. D(C  16,C   5,C   4,C   3)   -179.6626         0.021343   
    235. D(C  16,C   5,C   0,C  19)      2.5918         0.021404   
    236. D(C   4,C   5,C   0,C   1)      2.6813         0.021404   
    237. D(C   4,C   5,C   0,C  19)   -178.1695         0.021404   
    238. D(C   0,C   5,C   4,C  13)   -178.2080         0.021343   
    239. D(H  40,C   6,C   1,C   2)    179.5773         0.022008   
    240. D(H  40,C   6,C   1,C   0)      0.4213         0.022008   
    241. D(C   7,C   6,C   1,C   2)      1.7516         0.022008   
    242. D(C   7,C   6,C   1,C   0)   -177.4044         0.022008   
    243. D(H  41,C   7,C   6,C   1)    177.4123         0.026296   
    244. D(C   8,C   7,C   6,H  40)   -179.6123         0.026296   
    245. D(C   8,C   7,C   6,C   1)     -1.6751         0.026296   
    246. D(H  41,C   7,C   6,H  40)     -0.5249         0.026296   
    247. D(C  23,C   8,C   7,H  41)     -3.4818         0.026989   
    248. D(C  23,C   8,C   7,C   6)    175.5936         0.026989   
    249. D(C   9,C   8,C   7,H  41)    179.6750         0.026989   
    250. D(C   9,C   8,C   7,C   6)     -1.2496         0.026989   
    251. D(C  10,C   9,C   8,C  23)      6.3159         0.026718   
    252. D(C  10,C   9,C   8,C   7)   -176.9047         0.026718   
    253. D(C   2,C   9,C   8,C   7)      3.9585         0.026718   
    254. D(C  10,C   9,C   2,C   3)     -3.8123         0.019150   
    255. D(C   2,C   9,C   8,C  23)   -172.8209         0.026718   
    256. D(C  10,C   9,C   2,C   1)    177.0416         0.019150   
    257. D(C   8,C   9,C   2,C   3)    175.3163         0.019150   
    258. D(C   8,C   9,C   2,C   1)     -3.8299         0.019150   
    259. D(C  25,C  10,C   9,C   8)      2.9023         0.026803   
    260. D(C  25,C  10,C   9,C   2)   -177.9611         0.026803   
    261. D(C  11,C  10,C   9,C   8)   -176.9586         0.026803   
    262. D(C  11,C  10,C   9,C   2)      2.1780         0.026803   
    263. D(H  42,C  11,C  10,C  25)     -0.2188         0.027134   
    264. D(H  42,C  11,C  10,C   9)    179.6450         0.027134   
    265. D(C  12,C  11,C  10,C  25)   -179.5428         0.027134   
    266. D(C  12,C  11,C  10,C   9)      0.3211         0.027134   
    267. D(H  43,C  12,C  11,H  42)     -0.1088         0.026609   
    268. D(C   3,C  12,C  11,H  42)    179.4273         0.026609   
    269. D(C   3,C  12,C  11,C  10)     -1.2399         0.026609   
    270. D(H  43,C  12,C   3,C   4)     -1.6614         0.022174   
    271. D(H  43,C  12,C   3,C   2)    179.1276         0.022174   
    272. D(H  43,C  12,C  11,C  10)    179.2240         0.026609   
    273. D(C  11,C  12,C   3,C   4)    178.8277         0.022174   
    274. D(C  11,C  12,C   3,C   2)     -0.3834         0.022174   
    275. D(H  44,C  13,C   4,C   3)      0.0927         0.022080   
    276. D(C  14,C  13,C   4,C   5)      1.7439         0.022080   
    277. D(C  14,C  13,C   4,C   3)   -177.5407         0.022080   
    278. D(H  44,C  13,C   4,C   5)    179.3773         0.022080   
    279. D(H  45,C  14,C  13,H  44)     -0.1870         0.026403   
    280. D(H  45,C  14,C  13,C   4)    177.5703         0.026403   
    281. D(C  15,C  14,C  13,H  44)   -179.6439         0.026403   
    282. D(C  15,C  14,C  13,C   4)     -1.8866         0.026403   
    283. D(C  20,C  15,C  14,H  45)     -3.3438         0.027012   
    284. D(C  20,C  15,C  14,C  13)    176.1063         0.027012   
    285. D(C  16,C  15,C  14,H  45)    179.6861         0.027012   
    286. D(C  16,C  15,C  14,C  13)     -0.8639         0.027012   
    287. D(C  17,C  16,C  15,C  20)      5.8012         0.026682   
    288. D(C  17,C  16,C  15,C  14)   -177.2899         0.026682   
    289. D(C   5,C  16,C  15,C  20)   -173.2967         0.026682   
    290. D(C   5,C  16,C  15,C  14)      3.6122         0.026682   
    291. D(C  17,C  16,C   5,C   4)    177.2079         0.019090   
    292. D(C  17,C  16,C   5,C   0)     -3.5528         0.019090   
    293. D(C  15,C  16,C   5,C   4)     -3.7029         0.019090   
    294. D(C  15,C  16,C   5,C   0)    175.5364         0.019090   
    295. D(C  22,C  17,C  16,C  15)      3.1173         0.026792   
    296. D(C  22,C  17,C  16,C   5)   -177.7859         0.026792   
    297. D(C  18,C  17,C  16,C  15)   -177.1295         0.026792   
    298. D(C  18,C  17,C  16,C   5)      1.9673         0.026792   
    299. D(H  46,C  18,C  17,C  22)     -0.5806         0.027054   
    300. D(H  46,C  18,C  17,C  16)    179.6614         0.027054   
    301. D(C  19,C  18,C  17,C  22)   -179.7547         0.027054   
    302. D(C  19,C  18,C  17,C  16)      0.4872         0.027054   
    303. D(H  47,C  19,C  18,H  46)      0.0574         0.026424   
    304. D(H  47,C  19,C  18,C  17)    179.2417         0.026424   
    305. D(C   0,C  19,C  18,H  46)    179.3986         0.026424   
    306. D(C   0,C  19,C  18,C  17)     -1.4171         0.026424   
    307. D(H  47,C  19,C   0,C   5)    179.1448         0.022148   
    308. D(H  47,C  19,C   0,C   1)     -1.7343         0.022148   
    309. D(C  18,C  19,C   0,C   5)     -0.1605         0.022148   
    310. D(C  18,C  19,C   0,C   1)    178.9605         0.022148   
    311. D(O  28,C  20,C  15,C  16)    166.5359         0.013600   
    312. D(O  28,C  20,C  15,C  14)    -10.4102         0.013600   
    313. D(N  21,C  20,C  15,C  16)    -11.9936         0.013600   
    314. D(N  21,C  20,C  15,C  14)    171.0603         0.013600   
    315. D(C  30,N  21,C  20,O  28)      0.3988         0.024552   
    316. D(C  30,N  21,C  20,C  15)    178.8203         0.024552   
    317. D(C  22,N  21,C  20,O  28)   -169.1192         0.024552   
    318. D(C  22,N  21,C  20,C  15)      9.3024         0.024552   
    319. D(O  29,C  22,N  21,C  30)      7.6821         0.023674   
    320. D(O  29,C  22,N  21,C  20)    177.4928         0.023674   
    321. D(C  17,C  22,N  21,C  30)   -170.6571         0.023674   
    322. D(C  17,C  22,N  21,C  20)     -0.8465         0.023674   
    323. D(O  29,C  22,C  17,C  18)     -3.9801         0.013632   
    324. D(O  29,C  22,C  17,C  16)    175.7757         0.013632   
    325. D(N  21,C  22,C  17,C  18)    174.4569         0.013632   
    326. D(N  21,C  22,C  17,C  16)     -5.7873         0.013632   
    327. D(O  26,C  23,C   8,C   9)    166.2673         0.013488   
    328. D(O  26,C  23,C   8,C   7)    -10.5479         0.013488   
    329. D(N  24,C  23,C   8,C   9)    -11.9193         0.013488   
    330. D(N  24,C  23,C   8,C   7)    171.2655         0.013488   
    331. D(C  31,N  24,C  23,O  26)     -0.3074         0.024368   
    332. D(C  31,N  24,C  23,C   8)    177.7445         0.024368   
    333. D(C  25,N  24,C  23,O  26)   -169.7610         0.024368   
    334. D(C  25,N  24,C  23,C   8)      8.2909         0.024368   
    335. D(C  10,C  25,N  24,C  31)   -169.3259         0.023729   
    336. D(C  10,C  25,N  24,C  23)      0.4373         0.023729   
    337. D(O  27,C  25,C  10,C  11)     -4.9430         0.013672   
    338. D(O  27,C  25,C  10,C   9)    175.1944         0.013672   
    339. D(N  24,C  25,C  10,C  11)    173.4135         0.013672   
    340. D(O  27,C  25,N  24,C  23)    178.6920         0.023729   
    341. D(N  24,C  25,C  10,C   9)     -6.4491         0.013672   
    342. D(O  27,C  25,N  24,C  31)      8.9288         0.023729   
    343. D(H  48,C  30,N  21,C  20)    168.5021         0.013617   
    344. D(C  33,C  30,N  21,C  22)   -138.7374         0.013617   
    345. D(C  33,C  30,N  21,C  20)     51.1330         0.013617   
    346. D(C  32,C  30,N  21,C  22)     95.7080         0.013617   
    347. D(C  32,C  30,N  21,C  20)    -74.4217         0.013617   
    348. D(H  49,C  31,N  24,C  23)    168.2374         0.013614   
    349. D(C  37,C  31,N  24,C  25)   -139.1099         0.013614   
    350. D(C  37,C  31,N  24,C  23)     50.8092         0.013614   
    351. D(C  36,C  31,N  24,C  25)     95.2634         0.013614   
    352. D(C  36,C  31,N  24,C  23)    -74.8174         0.013614   
    353. D(H  50,C  32,C  30,H  48)    -64.3288         0.010000   
    354. D(H  50,C  32,C  30,C  33)     49.3312         0.010000   
    355. D(H  50,C  32,C  30,N  21)    177.8253         0.010000   
    356. D(C  35,C  32,C  30,H  48)     55.9611         0.010000   
    357. D(C  35,C  32,C  30,C  33)    169.6210         0.010000   
    358. D(C  35,C  32,C  30,N  21)    -61.8849         0.010000   
    359. D(H  52,C  33,C  30,H  48)    171.8087         0.010000   
    360. D(H  52,C  33,C  30,C  32)     57.2540         0.010000   
    361. D(H  52,C  33,C  30,N  21)    -69.3243         0.010000   
    362. D(C  34,C  33,C  30,H  48)    -64.0080         0.010000   
    363. D(C  34,C  33,C  30,C  32)   -178.5627         0.010000   
    364. D(C  34,C  33,C  30,N  21)     54.8590         0.010000   
    365. D(H  55,C  34,C  33,H  53)     56.7356         0.011852   
    366. D(H  55,C  34,C  33,H  52)    -57.4842         0.011852   
    367. D(H  55,C  34,C  33,C  30)    177.0573         0.011852   
    368. D(H  54,C  34,C  33,H  53)    176.1088         0.011852   
    369. D(H  54,C  34,C  33,H  52)     61.8889         0.011852   
    370. D(H  54,C  34,C  33,C  30)    -63.5695         0.011852   
    371. D(H  58,C  35,C  32,H  51)     62.3005         0.011623   
    372. D(H  58,C  35,C  32,H  50)    -53.0636         0.011623   
    373. D(H  58,C  35,C  32,C  30)   -174.0634         0.011623   
    374. D(H  57,C  35,C  32,H  51)   -178.2718         0.011623   
    375. D(H  57,C  35,C  32,H  50)     66.3641         0.011623   
    376. D(H  57,C  35,C  32,C  30)    -54.6357         0.011623   
    377. D(H  60,C  36,C  31,H  49)    -64.1384         0.010000   
    378. D(H  60,C  36,C  31,C  37)     49.4879         0.010000   
    379. D(H  60,C  36,C  31,N  24)    178.1372         0.010000   
    380. D(C  38,C  36,C  31,H  49)     56.1571         0.010000   
    381. D(C  38,C  36,C  31,C  37)    169.7835         0.010000   
    382. D(C  38,C  36,C  31,N  24)    -61.5673         0.010000   
    383. D(H  62,C  37,C  31,H  49)    171.8750         0.010000   
    384. D(H  62,C  37,C  31,C  36)     57.3618         0.010000   
    385. D(H  62,C  37,C  31,N  24)    -69.2052         0.010000   
    386. D(C  39,C  37,C  31,H  49)    -63.8665         0.010000   
    387. D(C  39,C  37,C  31,C  36)   -178.3797         0.010000   
    388. D(C  39,C  37,C  31,N  24)     55.0533         0.010000   
    389. D(H  65,C  38,C  36,H  61)     62.5472         0.011606   
    390. D(H  65,C  38,C  36,H  60)    -52.8463         0.011606   
    391. D(H  65,C  38,C  36,C  31)   -173.8489         0.011606   
    392. D(H  64,C  38,C  36,H  61)   -178.0048         0.011606   
    393. D(H  64,C  38,C  36,H  60)     66.6018         0.011606   
    394. D(H  64,C  38,C  36,C  31)    -54.4009         0.011606   
    395. D(H  68,C  39,C  37,H  63)     56.6197         0.011862   
    396. D(H  68,C  39,C  37,H  62)    -57.6087         0.011862   
    397. D(H  68,C  39,C  37,C  31)    176.8758         0.011862   
    398. D(H  67,C  39,C  37,H  63)    176.0128         0.011862   
    399. D(H  67,C  39,C  37,H  62)     61.7845         0.011862   
    400. D(H  67,C  39,C  37,C  31)    -63.7310         0.011862   
    -----------------------------------------------------------------

Number of atoms                         .... 70
Number of degrees of freedom            .... 400


         *************************************************************
         *                GEOMETRY OPTIMIZATION CYCLE   1            *
         *************************************************************
---------------------------------
CARTESIAN COORDINATES (ANGSTROEM)
---------------------------------
  C     -0.738256    1.211147    0.125717
  C      0.695153    1.234181    0.085444
  C      1.423363    0.014482    0.087433
  C      0.734073   -1.226879    0.107387
  C     -0.698728   -1.248934    0.065679
  C     -1.427881   -0.029860    0.086847
  C      1.446499    2.433617    0.024706
  C      2.837012    2.442137   -0.067180
  C      3.539601    1.242507   -0.067138
  C      2.857701    0.035250    0.050698
  C      3.579121   -1.152486    0.114327
  C      2.912745   -2.370622    0.168398
  C      1.521158   -2.402706    0.152125
  C     -1.448591   -2.447790   -0.012324
  C     -2.838675   -2.456755   -0.102686
  C     -3.542656   -1.258298   -0.079208
  C     -2.862682   -0.051179    0.052435
  C     -3.585455    1.134884    0.131240
  C     -2.918837    2.352420    0.202788
  C     -1.526400    2.385785    0.185348
  C     -5.012162   -1.287342   -0.264254
  N     -5.707410   -0.100833   -0.046287
  C     -5.066427    1.125537    0.145966
  C      5.008604    1.271594   -0.264963
  N      5.702376    0.078453   -0.073969
  C      5.059743   -1.146013    0.122705
  O      5.521390    2.329441   -0.616432
  O      5.647648   -2.215941    0.270433
  O     -5.527303   -2.342810   -0.624110
  O     -5.655005    2.193880    0.296134
  C     -7.175821   -0.062691   -0.241619
  C      7.165289    0.031928   -0.305590
  C     -7.550207   -0.068925   -1.743578
  C     -7.961950   -1.174680    0.493213
  C     -7.687275   -1.227031    1.988437
  C     -7.025713    1.140509   -2.508155
  C      7.499135    0.038196   -1.817139
  C      7.979889    1.135152    0.410370
  C      6.940763   -1.163033   -2.571005
  C      7.748657    1.182869    1.912955
  H      0.962259    3.406897    0.012392
  H      3.361021    3.393010   -0.153544
  H      3.467832   -3.305771    0.212587
  H      1.067056   -3.389331    0.183778
  H     -0.964186   -3.420266   -0.043085
  H     -3.362424   -3.406866   -0.200251
  H     -3.474892    3.286508    0.259216
  H     -1.073164    3.372554    0.231603
  H     -7.549935    0.882045    0.174307
  H      7.543128   -0.916694    0.097765
  H     -8.643135   -0.079375   -1.840705
  H     -7.182071   -0.980301   -2.228563
  H     -7.773266   -2.160057    0.055719
  H     -9.035901   -0.992931    0.352755
  H     -6.642857   -1.474026    2.198809
  H     -8.311181   -1.997164    2.454225
  H     -7.921563   -0.269713    2.463664
  H     -7.347001    2.074560   -2.036204
  H     -7.409490    1.132781   -3.533304
  H     -5.933201    1.136145   -2.565945
  H      8.588965    0.036731   -1.943509
  H      7.127933    0.955098   -2.289165
  H      7.786805    2.123534   -0.018187
  H      9.047903    0.945493    0.238618
  H      7.260440   -2.102255   -2.108340
  H      7.299921   -1.158726   -3.605006
  H      5.847326   -1.144123   -2.603162
  H      6.713114    1.438872    2.154028
  H      8.393417    1.944479    2.364113
  H      7.987049    0.220949    2.376784

----------------------------
CARTESIAN COORDINATES (A.U.)
----------------------------
  NO LB      ZA    FRAG     MASS         X           Y           Z
   0 C     6.0000    0    12.011   -1.395101    2.288735    0.237570
   1 C     6.0000    0    12.011    1.313649    2.332263    0.161466
   2 C     6.0000    0    12.011    2.689766    0.027367    0.165224
   3 C     6.0000    0    12.011    1.387196   -2.318465    0.202931
   4 C     6.0000    0    12.011   -1.320404   -2.360143    0.124115
   5 C     6.0000    0    12.011   -2.698304   -0.056426    0.164117
   6 C     6.0000    0    12.011    2.733487    4.598870    0.046687
   7 C     6.0000    0    12.011    5.361175    4.614970   -0.126952
   8 C     6.0000    0    12.011    6.688876    2.347998   -0.126873
   9 C     6.0000    0    12.011    5.400272    0.066614    0.095805
  10 C     6.0000    0    12.011    6.763559   -2.177883    0.216046
  11 C     6.0000    0    12.011    5.504290   -4.479827    0.318227
  12 C     6.0000    0    12.011    2.874572   -4.540456    0.287475
  13 C     6.0000    0    12.011   -2.737440   -4.625653   -0.023289
  14 C     6.0000    0    12.011   -5.364318   -4.642594   -0.194049
  15 C     6.0000    0    12.011   -6.694650   -2.377839   -0.149682
  16 C     6.0000    0    12.011   -5.409685   -0.096714    0.099087
  17 C     6.0000    0    12.011   -6.775527    2.144619    0.248007
  18 C     6.0000    0    12.011   -5.515803    4.445429    0.383213
  19 C     6.0000    0    12.011   -2.884479    4.508481    0.350258
  20 C     6.0000    0    12.011   -9.471614   -2.432724   -0.499368
  21 N     7.0000    0    14.007  -10.785443   -0.190547   -0.087469
  22 C     6.0000    0    12.011   -9.574159    2.126957    0.275836
  23 C     6.0000    0    12.011    9.464890    2.402964   -0.500707
  24 N     7.0000    0    14.007   10.775929    0.148254   -0.139781
  25 C     6.0000    0    12.011    9.561529   -2.165651    0.231879
  26 O     8.0000    0    15.999   10.433916    4.402005   -1.164887
  27 O     8.0000    0    15.999   10.672508   -4.187522    0.511043
  28 O     8.0000    0    15.999  -10.445089   -4.427269   -1.179398
  29 O     8.0000    0    15.999  -10.686410    4.145832    0.559613
  30 C     6.0000    0    12.011  -13.560336   -0.118468   -0.456593
  31 C     6.0000    0    12.011   13.540434    0.060335   -0.577481
  32 C     6.0000    0    12.011  -14.267824   -0.130250   -3.294885
  33 C     6.0000    0    12.011  -15.045905   -2.219824    0.932038
  34 C     6.0000    0    12.011  -14.526845   -2.318752    3.757601
  35 C     6.0000    0    12.011  -13.276674    2.155250   -4.739727
  36 C     6.0000    0    12.011   14.171312    0.072180   -3.433895
  37 C     6.0000    0    12.011   15.079805    2.145127    0.775487
  38 C     6.0000    0    12.011   13.116140   -2.197815   -4.858496
  39 C     6.0000    0    12.011   14.642840    2.235299    3.614961
  40 H     1.0000    0     1.008    1.818406    6.438102    0.023417
  41 H     1.0000    0     1.008    6.351409    6.411859   -0.290157
  42 H     1.0000    0     1.008    6.553253   -6.247003    0.401730
  43 H     1.0000    0     1.008    2.016443   -6.404908    0.347289
  44 H     1.0000    0     1.008   -1.822047   -6.463365   -0.081418
  45 H     1.0000    0     1.008   -6.354060   -6.438044   -0.378419
  46 H     1.0000    0     1.008   -6.566594    6.210600    0.489847
  47 H     1.0000    0     1.008   -2.027985    6.373203    0.437667
  48 H     1.0000    0     1.008  -14.267310    1.666824    0.329393
  49 H     1.0000    0     1.008   14.254446   -1.732300    0.184750
  50 H     1.0000    0     1.008  -16.333159   -0.149997   -3.478428
  51 H     1.0000    0     1.008  -13.572148   -1.852500   -4.211373
  52 H     1.0000    0     1.008  -14.689344   -4.081916    0.105293
  53 H     1.0000    0     1.008  -17.075379   -1.876368    0.666610
  54 H     1.0000    0     1.008  -12.553181   -2.785505    4.155148
  55 H     1.0000    0     1.008  -15.705856   -3.774094    4.637813
  56 H     1.0000    0     1.008  -14.969584   -0.509684    4.655650
  57 H     1.0000    0     1.008  -13.883819    3.920351   -3.847867
  58 H     1.0000    0     1.008  -14.001907    2.140647   -6.676976
  59 H     1.0000    0     1.008  -11.212124    2.147002   -4.848934
  60 H     1.0000    0     1.008   16.230791    0.069412   -3.672699
  61 H     1.0000    0     1.008   13.469841    1.804874   -4.325894
  62 H     1.0000    0     1.008   14.714929    4.012898   -0.034368
  63 H     1.0000    0     1.008   17.098059    1.786723    0.450923
  64 H     1.0000    0     1.008   13.720242   -3.972687   -3.984185
  65 H     1.0000    0     1.008   13.794852   -2.189675   -6.812475
  66 H     1.0000    0     1.008   11.049845   -2.162079   -4.919263
  67 H     1.0000    0     1.008   12.685948    2.719074    4.070523
  68 H     1.0000    0     1.008   15.861260    3.674532    4.467525
  69 H     1.0000    0     1.008   15.093334    0.417533    4.491471

--------------------------------
INTERNAL COORDINATES (ANGSTROEM)
--------------------------------
 C      0   0   0     0.000000000000     0.00000000     0.00000000
 C      1   0   0     1.434159427911     0.00000000     0.00000000
 C      2   1   0     1.420548685277   119.90267231     0.00000000
 C      3   2   1     1.420034146402   120.11695367     1.01824119
 C      4   3   2     1.433576958042   119.87975158     2.76032009
 C      1   2   3     1.420278117583   119.90527655   356.24532812
 C      2   1   3     1.416636335666   123.01770696   179.13306251
 C      7   2   1     1.393571308915   122.49406853   182.59560001
 C      8   7   2     1.390231441223   119.93313937   358.32490968
 C      9   8   7     1.391524583330   120.06499699   358.75040552
 C     10   9   8     1.391119870595   119.37226661   183.09528603
 C     11  10   9     1.389545228283   120.10327376   183.04139925
 C     12  11  10     1.392051920091   119.94403579     0.32107696
 C      5   4   3     1.416204433206   122.94453938   175.43022800
 C     14   5   4     1.393046604314   122.50560884   182.45925265
 C     15  14   5     1.390121922875   119.91378488   358.11341418
 C     16  15  14     1.391701146604   120.12884281   359.13609687
 C     17  16  15     1.391170233546   119.40651300   182.71006919
 C     18  17  16     1.389925154162   120.03723988   182.87048814
 C     19  18  17     1.392945664689   119.98475048     0.48721786
 C     16  15  14     1.481395818758   118.90379684   176.10626288
 N     21  16  15     1.392366073944   117.32644754   171.06025186
 C     22  21  16     1.397070128400   122.71637621     9.30235283
 C      9   8   7     1.482549105540   118.93547339   175.59355347
 N     24   9   8     1.393335688671   117.27622192   171.26552375
 C     25  24   9     1.396772357945   122.74486841     8.29085785
 O     24   9   8     1.226996463969   117.98487552   349.45211220
 O     26  25  24     1.229716242022   124.03418306   178.69200351
 O     21  16  15     1.228364626108   117.99829303   349.58978301
 O     23  22  21     1.228955235722   124.06791297   177.49276306
 C     22  21  16     1.481836112703   119.74255775   178.82032154
 C     25  24   9     1.481866174031   119.80254186   177.74450071
 C     31  22  21     1.547929753562   111.55971432   285.57832073
 C     31  22  21     1.547416734025   114.98177566    51.13296982
 C     34  31  22     1.521144426109   113.56447018    54.85902849
 C     33  31  22     1.523943853213   113.60139733   298.11511420
 C     32  25  24     1.547990050736   111.43238635   285.18255249
 C     32  25  24     1.547021317461   115.15693482    50.80917327
 C     37  32  25     1.524154513964   113.62629071   298.43271059
 C     38  32  25     1.521021694744   113.54765626    55.05332850
 H      7   2   1     1.087158228378   121.48250544     0.42129426
 H      8   7   2     1.089129674398   119.38242830   177.41227533
 H     12  11  10     1.088383491715   120.67830580   179.64501940
 H     13  12  11     1.086572801192   115.99986299   179.22397352
 H     14   5   4     1.086877552307   121.53356894     0.09270339
 H     15  14   5     1.089285744724   119.42075531   177.57030703
 H     19  18  17     1.088532019906   120.62107650   179.66135144
 H     20  19  18     1.086864690187   115.98113397   179.24168620
 H     31  22  21     1.097944529608   108.05118225   168.50213036
 H     32  25  24     1.097880349922   108.02629716   168.23740086
 H     33  31  22     1.097284890632   109.07633566   177.82527964
 H     33  31  22     1.096056370215   110.57630030    60.77929983
 H     34  31  22     1.094518303198   111.68842772   290.67571540
 H     34  31  22     1.098240665463   108.48966142   174.86841864
 H     35  34  31     1.093650801915   111.67215451   296.43047145
 H     35  34  31     1.095135941657   109.84067996   177.05733865
 H     35  34  31     1.094160742932   110.98679922    57.73307920
 H     36  33  31     1.094721851078   111.09028397   305.36432962
 H     36  33  31     1.094656998307   110.09553527   185.93663002
 H     36  33  31     1.094048486478   111.53202647    66.69749380
 H     37  32  25     1.097132436782   109.06820907   178.13715197
 H     37  32  25     1.096042626560   110.54069099    61.08187069
 H     38  32  25     1.094459300513   111.70924370   290.79479967
 H     38  32  25     1.098236576319   108.45382837   175.00909273
 H     39  37  32     1.094710011657   111.11019262   305.59911296
 H     39  37  32     1.094610230633   110.11584714   186.15107783
 H     39  37  32     1.094072642297   111.53388265    66.93577007
 H     40  38  32     1.093618956058   111.65755381   296.26897662
 H     40  38  32     1.095128953555   109.83343658   176.87581585
 H     40  38  32     1.094193246557   110.98118495    57.56599930

---------------------------
INTERNAL COORDINATES (A.U.)
---------------------------
 C      0   0   0     0.000000000000     0.00000000     0.00000000
 C      1   0   0     2.710168551133     0.00000000     0.00000000
 C      2   1   0     2.684447975076   119.90267231     0.00000000
 C      3   2   1     2.683475637517   120.11695367     1.01824119
 C      4   3   2     2.709067842600   119.87975158     2.76032009
 C      1   2   3     2.683936676233   119.90527655   356.24532812
 C      2   1   3     2.677054705770   123.01770696   179.13306251
 C      7   2   1     2.633468121940   122.49406853   182.59560001
 C      8   7   2     2.627156686679   119.93313937   358.32490968
 C      9   8   7     2.629600371113   120.06499699   358.75040552
 C     10   9   8     2.628835574880   119.37226661   183.09528603
 C     11  10   9     2.625859932152   120.10327376   183.04139925
 C     12  11  10     2.630596893171   119.94403579     0.32107696
 C      5   4   3     2.676238528405   122.94453938   175.43022800
 C     14   5   4     2.632476573942   122.50560884   182.45925265
 C     15  14   5     2.626949726993   119.91378488   358.11341418
 C     16  15  14     2.629934027345   120.12884281   359.13609687
 C     17  16  15     2.628930747065   119.40651300   182.71006919
 C     18  17  16     2.626577888014   120.03723988   182.87048814
 C     19  18  17     2.632285825694   119.98475048     0.48721786
 C     16  15  14     2.799432393389   118.90379684   176.10626288
 N     21  16  15     2.631190557918   117.32644754   171.06025186
 C     22  21  16     2.640079932558   122.71637621     9.30235283
 C      9   8   7     2.801611789561   118.93547339   175.59355347
 N     24   9   8     2.633022864208   117.27622192   171.26552375
 C     25  24   9     2.639517227947   122.74486841     8.29085785
 O     24   9   8     2.318687284192   117.98487552   349.45211220
 O     26  25  24     2.323826919856   124.03418306   178.69200351
 O     21  16  15     2.321272735940   117.99829303   349.58978301
 O     23  22  21     2.322388826364   124.06791297   177.49276306
 C     22  21  16     2.800264428363   119.74255775   178.82032154
 C     25  24   9     2.800321236040   119.80254186   177.74450071
 C     31  22  21     2.925163308780   111.55971432   285.57832073
 C     31  22  21     2.924193842355   114.98177566    51.13296982
 C     34  31  22     2.874546375487   113.56447018    54.85902849
 C     33  31  22     2.879836526045   113.60139733   298.11511420
 C     32  25  24     2.925277253927   111.43238635   285.18255249
 C     32  25  24     2.923446613339   115.15693482    50.80917327
 C     37  32  25     2.880234617173   113.62629071   298.43271059
 C     38  32  25     2.874314446820   113.54765626    55.05332850
 H      7   2   1     2.054431315873   121.48250544     0.42129426
 H      8   7   2     2.058156808939   119.38242830   177.41227533
 H     12  11  10     2.056746728023   120.67830580   179.64501940
 H     13  12  11     2.053325018820   115.99986299   179.22397352
 H     14   5   4     2.053900914967   121.53356894     0.09270339
 H     15  14   5     2.058451739113   119.42075531   177.57030703
 H     19  18  17     2.057027405626   120.62107650   179.66135144
 H     20  19  18     2.053876609083   115.98113397   179.24168620
 H     31  22  21     2.074814471196   108.05118225   168.50213036
 H     32  25  24     2.074693189167   108.02629716   168.23740086
 H     33  31  22     2.073567934184   109.07633566   177.82527964
 H     33  31  22     2.071246367046   110.57630030    60.77929983
 H     34  31  22     2.068339841608   111.68842772   290.67571540
 H     34  31  22     2.075374086861   108.48966142   174.86841864
 H     35  34  31     2.066700501763   111.67215451   296.43047145
 H     35  34  31     2.069507009147   109.84067996   177.05733865
 H     35  34  31     2.067664150629   110.98679922    57.73307920
 H     36  33  31     2.068724491356   111.09028397   305.36432962
 H     36  33  31     2.068601937381   110.09553527   185.93663002
 H     36  33  31     2.067452016674   111.53202647    66.69749380
 H     37  32  25     2.073279838159   109.06820907   178.13715197
 H     37  32  25     2.071220395302   110.54069099    61.08187069
 H     38  32  25     2.068228342692   111.70924370   290.79479967
 H     38  32  25     2.075366359499   108.45382837   175.00909273
 H     39  37  32     2.068702118093   111.11019262   305.59911296
 H     39  37  32     2.068513559285   110.11584714   186.15107783
 H     39  37  32     2.067497664557   111.53388265    66.93577007
 H     40  38  32     2.066640321814   111.65755381   296.26897662
 H     40  38  32     2.069493803546   109.83343658   176.87581585
 H     40  38  32     2.067725573579   110.98118495    57.56599930

---------------------
BASIS SET INFORMATION
---------------------
There are 4 groups of distinct atoms

 Group   1 Type C   : 11s6p1d contracted to 5s3p1d pattern {62111/411/1}
 Group   2 Type N   : 11s6p2d contracted to 5s3p2d pattern {62111/411/11}
 Group   3 Type O   : 11s6p2d contracted to 5s3p2d pattern {62111/411/11}
 Group   4 Type H   : 4s1p contracted to 2s1p pattern {31/1}

Atom   0C    basis set group =>   1
Atom   1C    basis set group =>   1
Atom   2C    basis set group =>   1
Atom   3C    basis set group =>   1
Atom   4C    basis set group =>   1
Atom   5C    basis set group =>   1
Atom   6C    basis set group =>   1
Atom   7C    basis set group =>   1
Atom   8C    basis set group =>   1
Atom   9C    basis set group =>   1
Atom  10C    basis set group =>   1
Atom  11C    basis set group =>   1
Atom  12C    basis set group =>   1
Atom  13C    basis set group =>   1
Atom  14C    basis set group =>   1
Atom  15C    basis set group =>   1
Atom  16C    basis set group =>   1
Atom  17C    basis set group =>   1
Atom  18C    basis set group =>   1
Atom  19C    basis set group =>   1
Atom  20C    basis set group =>   1
Atom  21N    basis set group =>   2
Atom  22C    basis set group =>   1
Atom  23C    basis set group =>   1
Atom  24N    basis set group =>   2
Atom  25C    basis set group =>   1
Atom  26O    basis set group =>   3
Atom  27O    basis set group =>   3
Atom  28O    basis set group =>   3
Atom  29O    basis set group =>   3
Atom  30C    basis set group =>   1
Atom  31C    basis set group =>   1
Atom  32C    basis set group =>   1
Atom  33C    basis set group =>   1
Atom  34C    basis set group =>   1
Atom  35C    basis set group =>   1
Atom  36C    basis set group =>   1
Atom  37C    basis set group =>   1
Atom  38C    basis set group =>   1
Atom  39C    basis set group =>   1
Atom  40H    basis set group =>   4
Atom  41H    basis set group =>   4
Atom  42H    basis set group =>   4
Atom  43H    basis set group =>   4
Atom  44H    basis set group =>   4
Atom  45H    basis set group =>   4
Atom  46H    basis set group =>   4
Atom  47H    basis set group =>   4
Atom  48H    basis set group =>   4
Atom  49H    basis set group =>   4
Atom  50H    basis set group =>   4
Atom  51H    basis set group =>   4
Atom  52H    basis set group =>   4
Atom  53H    basis set group =>   4
Atom  54H    basis set group =>   4
Atom  55H    basis set group =>   4
Atom  56H    basis set group =>   4
Atom  57H    basis set group =>   4
Atom  58H    basis set group =>   4
Atom  59H    basis set group =>   4
Atom  60H    basis set group =>   4
Atom  61H    basis set group =>   4
Atom  62H    basis set group =>   4
Atom  63H    basis set group =>   4
Atom  64H    basis set group =>   4
Atom  65H    basis set group =>   4
Atom  66H    basis set group =>   4
Atom  67H    basis set group =>   4
Atom  68H    basis set group =>   4
Atom  69H    basis set group =>   4
---------------------------------
AUXILIARY/J BASIS SET INFORMATION
---------------------------------
There are 4 groups of distinct atoms

 Group   1 Type C   : 8s3p3d contracted to 6s3p3d pattern {311111/111/111}
 Group   2 Type N   : 8s3p3d contracted to 6s3p3d pattern {311111/111/111}
 Group   3 Type O   : 8s3p3d contracted to 6s3p3d pattern {311111/111/111}
 Group   4 Type H   : 5s2p1d contracted to 3s1p1d pattern {311/2/1}

Atom   0C    basis set group =>   1
Atom   1C    basis set group =>   1
Atom   2C    basis set group =>   1
Atom   3C    basis set group =>   1
Atom   4C    basis set group =>   1
Atom   5C    basis set group =>   1
Atom   6C    basis set group =>   1
Atom   7C    basis set group =>   1
Atom   8C    basis set group =>   1
Atom   9C    basis set group =>   1
Atom  10C    basis set group =>   1
Atom  11C    basis set group =>   1
Atom  12C    basis set group =>   1
Atom  13C    basis set group =>   1
Atom  14C    basis set group =>   1
Atom  15C    basis set group =>   1
Atom  16C    basis set group =>   1
Atom  17C    basis set group =>   1
Atom  18C    basis set group =>   1
Atom  19C    basis set group =>   1
Atom  20C    basis set group =>   1
Atom  21N    basis set group =>   2
Atom  22C    basis set group =>   1
Atom  23C    basis set group =>   1
Atom  24N    basis set group =>   2
Atom  25C    basis set group =>   1
Atom  26O    basis set group =>   3
Atom  27O    basis set group =>   3
Atom  28O    basis set group =>   3
Atom  29O    basis set group =>   3
Atom  30C    basis set group =>   1
Atom  31C    basis set group =>   1
Atom  32C    basis set group =>   1
Atom  33C    basis set group =>   1
Atom  34C    basis set group =>   1
Atom  35C    basis set group =>   1
Atom  36C    basis set group =>   1
Atom  37C    basis set group =>   1
Atom  38C    basis set group =>   1
Atom  39C    basis set group =>   1
Atom  40H    basis set group =>   4
Atom  41H    basis set group =>   4
Atom  42H    basis set group =>   4
Atom  43H    basis set group =>   4
Atom  44H    basis set group =>   4
Atom  45H    basis set group =>   4
Atom  46H    basis set group =>   4
Atom  47H    basis set group =>   4
Atom  48H    basis set group =>   4
Atom  49H    basis set group =>   4
Atom  50H    basis set group =>   4
Atom  51H    basis set group =>   4
Atom  52H    basis set group =>   4
Atom  53H    basis set group =>   4
Atom  54H    basis set group =>   4
Atom  55H    basis set group =>   4
Atom  56H    basis set group =>   4
Atom  57H    basis set group =>   4
Atom  58H    basis set group =>   4
Atom  59H    basis set group =>   4
Atom  60H    basis set group =>   4
Atom  61H    basis set group =>   4
Atom  62H    basis set group =>   4
Atom  63H    basis set group =>   4
Atom  64H    basis set group =>   4
Atom  65H    basis set group =>   4
Atom  66H    basis set group =>   4
Atom  67H    basis set group =>   4
Atom  68H    basis set group =>   4
Atom  69H    basis set group =>   4
------------------------------------------------------------------------------
                             ORCA STARTUP CALCULATIONS
                           -- RI-GTO INTEGRALS CHOSEN --
------------------------------------------------------------------------------
------------------------------------------------------------------------------
                   ___                                                        
                  /   \      - P O W E R E D   B Y -                         
                 /     \                                                     
                 |  |  |   _    _      __       _____    __    __             
                 |  |  |  | |  | |    /  \     |  _  \  |  |  /  |          
                  \  \/   | |  | |   /    \    | | | |  |  | /  /          
                 / \  \   | |__| |  /  /\  \   | |_| |  |  |/  /          
                |  |  |   |  __  | /  /__\  \  |    /   |      \           
                |  |  |   | |  | | |   __   |  |    \   |  |\   \          
                \     /   | |  | | |  |  |  |  | |\  \  |  | \   \       
                 \___/    |_|  |_| |__|  |__|  |_| \__\ |__|  \__/        
                                                                              
                      - O R C A' S   B I G   F R I E N D -                    
                                      &                                       
                       - I N T E G R A L  F E E D E R -                       
                                                                              
 v1 FN, 2020, v2 2021, v3 2022-2024                                           
------------------------------------------------------------------------------


----------------------
SHARK INTEGRAL PACKAGE
----------------------

Number of atoms                             ...     70
Number of basis functions                   ...    940
Number of shells                            ...    456
Maximum angular momentum                    ...      2
Integral batch strategy                     ... SHARK/LIBINT Hybrid
RI-J (if used) integral strategy            ... SPLIT-RIJ (Revised 2003 algorithm where possible)
Printlevel                                  ...      1
Contraction scheme used                     ... SEGMENTED contraction
Prescreening option                         ... SCHWARTZ
   Thresh                                   ... 2.500e-11
   Tcut                                     ... 2.500e-12
   Tpresel                                  ... 2.500e-12 
Coulomb Range Separation                    ... NOT USED
Exchange Range Separation                   ... NOT USED
Multipole approximations                    ... NOT USED
Finite Nucleus Model                        ... NOT USED
CABS basis                                  ... NOT available
Auxiliary Coulomb fitting basis             ... AVAILABLE
   # of basis functions in Aux-J            ...   1530
   # of shells in Aux-J                     ...    630
   Maximum angular momentum in Aux-J        ...      2
Auxiliary J/K fitting basis                 ... NOT available
Auxiliary Correlation fitting basis         ... NOT available
Auxiliary 'external' fitting basis          ... NOT available

Checking pre-screening integrals            ... done (  0.0 sec) Dimension = 456
   => SHARK Basis and OBASIS are compatible. Storing Pre-screening
Shell pair information
Shell pair cut-off parameter TPreSel        ...   2.5e-12
Total number of shell pairs                 ...    104196
Shell pairs after pre-screening             ...     52934
Total number of primitive shell pairs       ...    385096
Primitive shell pairs kept                  ...    117902
          la=0 lb=0:  16066 shell pairs
          la=1 lb=0:  20716 shell pairs
          la=1 lb=1:   6624 shell pairs
          la=2 lb=0:   5456 shell pairs
          la=2 lb=1:   3585 shell pairs
          la=2 lb=2:    487 shell pairs

Checking whether 4 symmetric matrices of dimension 940 fit in memory
:Max Core in MB      =   8000.00
 MB in use           =     51.47
 MB left             =   7948.53
 MB needed           =     13.50
 Data fit in memory  = YES
Calculating RI/J V-Matrix + Cholesky decomp.... done (  0.0 sec)
Calculating Nuclear repulsion               ... done (  0.0 sec) ENN=   4328.392811572774 Eh

Diagonalization of the overlap matrix:
Smallest eigenvalue                        ... 2.526e-06
Time for diagonalization                   ...    0.062 sec
Threshold for overlap eigenvalues          ... 1.000e-07
Number of eigenvalues below threshold      ... 0
Time for construction of square roots      ...    0.013 sec
Total time needed                          ...    0.076 sec

-------------------
DFT GRID GENERATION
-------------------

General Integration Accuracy     IntAcc      ... 4.388
Radial Grid Type                 RadialGrid  ... OptM3 with GC (2021)
Angular Grid (max. ang.)         AngularGrid ... 4 (Lebedev-302)
Angular grid pruning method      GridPruning ... 4 (adaptive)
Weight generation scheme         WeightScheme... mBecke (2022)
Basis function cutoff            BFCut       ... 1.0000e-11
Integration weight cutoff        WCut        ... 1.0000e-14
Partially contracted basis set               ... off
Rotationally invariant grid construction     ... off
Angular grids for H and He will be reduced by one unit
Diffuse basis detected: some atoms will have their outermost
                        angular grid increased by 1.

Total number of grid points                  ...   333184
Total number of batches                      ...     5242
Average number of points per batch           ...       63
Average number of grid points per atom       ...     4760
Grids setup in   3.5 sec
Initializing property integral containers    ... done (  0.0 sec)

SHARK setup successfully completed in   4.1 seconds

Maximum memory used throughout the entire STARTUP-calculation: 182.8 MB
-------------------------------------------------------------------------------
                                 ORCA GUESS
                   Start orbitals & Density for SCF / CASSCF
-------------------------------------------------------------------------------

------------
SCF SETTINGS
------------
Hamiltonian:
 Density Functional     Method          .... DFT(GTOs)
  Functional kind                       .... Exchange
  Functional name                       .... Re-regularized SCAN exchange by Furness et al
  Functional family                     .... MGGA
  Functional refs                              
    [ 0] J. W. Furness, A. D. Kaplan, J. Ning, J. P. Perdew, and J. Sun.,  J. Phys. Chem. Lett. 11, 8208-8215 (2020), doi: 10.1021/acs.jpclett.0c02405
    [ 1] J. W. Furness, A. D. Kaplan, J. Ning, J. P. Perdew, and J. Sun.,  J. Phys. Chem. Lett. 11, 9248-9248 (2020), doi: 10.1021/acs.jpclett.0c03077
  Functional external parameters        .... 6
    Parameter  0 _c1        =  6.670000e-01 : c1 parameter        
    Parameter  1 _c2        =  8.000000e-01 : c2 parameter        
    Parameter  2 _d         =  1.240000e+00 : d parameter         
    Parameter  3 _k1        =  6.500000e-02 : k1 parameter        
    Parameter  4 _eta       =  1.000000e-03 : eta parameter       
    Parameter  5 _dp2       =  3.610000e-01 : dp2 parameter       
  Functional kind                       .... Correlation
  Functional name                       .... Re-regularized SCAN correlation by Furness et al
  Functional family                     .... MGGA
  Functional refs                              
    [ 0] J. W. Furness, A. D. Kaplan, J. Ning, J. P. Perdew, and J. Sun.,  J. Phys. Chem. Lett. 11, 8208-8215 (2020), doi: 10.1021/acs.jpclett.0c02405
    [ 1] J. W. Furness, A. D. Kaplan, J. Ning, J. P. Perdew, and J. Sun.,  J. Phys. Chem. Lett. 11, 9248-9248 (2020), doi: 10.1021/acs.jpclett.0c03077
  Functional external parameters        .... 1
    Parameter  0 _eta       =  1.000000e-03 : Regularization parameter
 Gradients option       PostSCFGGA      .... off
 RI-approximation to the Coulomb term is turned on
   Number of AuxJ basis functions       .... 1530


General Settings:
 Integral files         IntName         .... pdi_terminal_functionalized_opt
 Hartree-Fock type      HFTyp           .... RHF
 Total Charge           Charge          ....    0
 Multiplicity           Mult            ....    1
 Number of Electrons    NEL             ....  280
 Basis Dimension        Dim             ....  940
 Nuclear Repulsion      ENuc            ....   4328.3928115728 Eh

Convergence Acceleration:
 AO-DIIS                CNVDIIS         .... on
   Start iteration      DIISMaxIt       ....    12
   Startup error        DIISStart       ....  0.200000
   # of expansion vecs  DIISMaxEq       ....     5
   Bias factor          DIISBfac        ....   1.050
   Max. coefficient     DIISMaxC        ....  10.000
 MO-DIIS                CNVKDIIS        .... off
 Trust-Rad. Augm. Hess. CNVTRAH         .... auto
   Auto Start mean grad. ratio tolernc. ....  1.125000
   Auto Start start iteration           ....    50
   Auto Start num. interpolation iter.  ....    10
   Max. Number of Micro iterations      ....    24
   Max. Number of Macro iterations      .... Maxiter - #DIIS iter
   Number of Davidson start vectors     ....     2
   Converg. threshold    (grad. norm)   ....   1.000e-05
   Grad. Scal. Fac. for Micro threshold ....   0.100
   Minimum threshold for Micro iter.    ....   1.000e-02
   NR start threshold (gradient norm)   ....   1.000e-04
   Initial trust radius                 ....   0.400
   Minimum AH scaling param. (alpha)    ....   1.000
   Maximum AH scaling param. (alpha)    .... 1000.000
   Quad. conv. algorithm                .... NR
   White noise on init. David. guess    .... on
   Maximum white noise                  ....   0.010
   Pseudo random numbers                .... off
   Inactive MOs                         .... canonical
   Orbital update algorithm             .... Taylor
   Preconditioner                       .... Diag
   Full preconditioner red. dimension   ....   250
   COSX micro iterations for RIJONX calc.... off
 SOSCF                 CNVSOSCF           .... on
   Start iteration     SOSCFMaxIt         ....   150
   Startup grad/error  SOSCFStart         ....  0.003300
   Hessian update      SOSCFHessUp        .... L-BFGS
   Autom. constraints  SOSCFAutoConstrain .... off
 Level Shifting         CNVShift        .... on
   Level shift para.    LevelShift      ....    0.2500
   Turn off err/grad.   ShiftErr        ....    0.0010
 Zerner damping         CNVZerner       .... off
 Static damping         CNVDamp         .... on
   Fraction old density DampFac         ....    0.7000
   Max. Damping (<1)    DampMax         ....    0.9800
   Min. Damping (>=0)   DampMin         ....    0.0000
   Turn off err/grad.   DampErr         ....    0.1000

SCF Procedure:
 Maximum # iterations   MaxIter         ....   125
 SCF integral mode      SCFMode         .... Direct
   Integral package                     .... SHARK and LIBINT hybrid scheme
 Reset frequency        DirectResetFreq ....    20
 Integral Threshold     Thresh          ....  2.500e-11 Eh
 Primitive CutOff       TCut            ....  2.500e-12 Eh

Convergence Tolerance:
 Convergence Check Mode ConvCheckMode   .... Total+1el-Energy
 Convergence forced     ConvForced      .... 0
 Energy Change          TolE            ....  1.000e-08 Eh
 1-El. energy change                    ....  1.000e-05 Eh
 Orbital Gradient       TolG            ....  1.000e-05
 Orbital Rotation angle TolX            ....  1.000e-05
 DIIS Error             TolErr          ....  5.000e-07

------------------------------
INITIAL GUESS: MODEL POTENTIAL
------------------------------
Loading Hartree-Fock densities                     ... done
Calculating cut-offs                               ... done
Initializing the effective Hamiltonian             ... done
Setting up the integral package (SHARK)            ... done
Starting the Coulomb interaction                   ... done (   2.8 sec)
Making the grid                                    ... done (   1.0 sec)
Mapping shells                                     ... done
Starting the XC term evaluation                    ... done (   1.6 sec)
  promolecular density results
     # of electrons  =    279.981335549
     EX              =   -228.617868732
     EC              =     -9.483193425
     EX+EC           =   -238.101062157
[...]
      px      :     0.025990
      py      :     0.008892

 68 H s       :     0.803636  s :     0.803636
      pz      :     0.020279  p :     0.042780
      px      :     0.012228
      py      :     0.010273

 69 H s       :     0.799793  s :     0.799793
      pz      :     0.007533  p :     0.042809
      px      :     0.007960
      py      :     0.027316



                      *****************************
                      * MAYER POPULATION ANALYSIS *
                      *****************************

  NA   - Mulliken gross atomic population
  ZA   - Total nuclear charge
  QA   - Mulliken gross atomic charge
  VA   - Mayer's total valence
  BVA  - Mayer's bonded valence
  FA   - Mayer's free valence

  ATOM       NA         ZA         QA         VA         BVA        FA
  0 C      5.8499     6.0000     0.1501     3.1411     3.1411     0.0000
  1 C      5.8499     6.0000     0.1501     3.1451     3.1451    -0.0000
  2 C      5.9596     6.0000     0.0404     3.0119     3.0119    -0.0000
  3 C      5.8450     6.0000     0.1550     3.1345     3.1345    -0.0000
  4 C      5.8461     6.0000     0.1539     3.1344     3.1344    -0.0000
  5 C      5.9566     6.0000     0.0434     3.0086     3.0086    -0.0000
  6 C      6.2450     6.0000    -0.2450     3.4833     3.4833     0.0000
  7 C      6.2944     6.0000    -0.2944     3.6850     3.6850    -0.0000
  8 C      5.8462     6.0000     0.1538     3.1696     3.1696    -0.0000
  9 C      5.8314     6.0000     0.1686     3.3065     3.3065     0.0000
 10 C      5.8270     6.0000     0.1730     3.1953     3.1953    -0.0000
 11 C      6.2896     6.0000    -0.2896     3.6893     3.6893    -0.0000
 12 C      6.2479     6.0000    -0.2479     3.4843     3.4843    -0.0000
 13 C      6.2478     6.0000    -0.2478     3.4820     3.4820    -0.0000
 14 C      6.2933     6.0000    -0.2933     3.6871     3.6871    -0.0000
 15 C      5.8468     6.0000     0.1532     3.1708     3.1708    -0.0000
 16 C      5.8301     6.0000     0.1699     3.3036     3.3036    -0.0000
 17 C      5.8275     6.0000     0.1725     3.1940     3.1940    -0.0000
 18 C      6.2912     6.0000    -0.2912     3.6871     3.6871    -0.0000
 19 C      6.2464     6.0000    -0.2464     3.4851     3.4851    -0.0000
 20 C      6.0287     6.0000    -0.0287     3.9801     3.9801    -0.0000
 21 N      6.6773     7.0000     0.3227     3.0784     3.0784    -0.0000
 22 C      5.9284     6.0000     0.0716     3.7193     3.7193    -0.0000
 23 C      6.0285     6.0000    -0.0285     3.9809     3.9809    -0.0000
 24 N      6.6773     7.0000     0.3227     3.0784     3.0784    -0.0000
 25 C      5.9288     6.0000     0.0712     3.7190     3.7190    -0.0000
 26 O      8.4023     8.0000    -0.4023     2.0426     2.0426    -0.0000
 27 O      8.4267     8.0000    -0.4267     2.0462     2.0462    -0.0000
 28 O      8.4022     8.0000    -0.4022     2.0425     2.0425    -0.0000
 29 O      8.4268     8.0000    -0.4268     2.0462     2.0462    -0.0000
 30 C      6.1962     6.0000    -0.1962     3.6119     3.6119    -0.0000
 31 C      6.1963     6.0000    -0.1963     3.6119     3.6119    -0.0000
 32 C      6.2597     6.0000    -0.2597     3.5306     3.5306    -0.0000
 33 C      6.2602     6.0000    -0.2602     3.5316     3.5316    -0.0000
 34 C      6.5244     6.0000    -0.5244     3.7905     3.7905    -0.0000
 35 C      6.5252     6.0000    -0.5252     3.7909     3.7909    -0.0000
 36 C      6.2589     6.0000    -0.2589     3.5305     3.5305    -0.0000
 37 C      6.2610     6.0000    -0.2610     3.5319     3.5319    -0.0000
 38 C      6.5247     6.0000    -0.5247     3.7904     3.7904    -0.0000
 39 C      6.5249     6.0000    -0.5249     3.7911     3.7911    -0.0000
 40 H      0.8734     1.0000     0.1266     0.9757     0.9757     0.0000
 41 H      0.8171     1.0000     0.1829     0.9566     0.9566     0.0000
 42 H      0.8169     1.0000     0.1831     0.9564     0.9564     0.0000
 43 H      0.8735     1.0000     0.1265     0.9757     0.9757     0.0000
 44 H      0.8735     1.0000     0.1265     0.9757     0.9757    -0.0000
 45 H      0.8171     1.0000     0.1829     0.9566     0.9566    -0.0000
 46 H      0.8169     1.0000     0.1831     0.9564     0.9564     0.0000
 47 H      0.8735     1.0000     0.1265     0.9757     0.9757    -0.0000
 48 H      0.7612     1.0000     0.2388     0.9297     0.9297    -0.0000
 49 H      0.7612     1.0000     0.2388     0.9297     0.9297    -0.0000
 50 H      0.8504     1.0000     0.1496     0.9602     0.9602     0.0000
 51 H      0.8148     1.0000     0.1852     0.9563     0.9563     0.0000
 52 H      0.8147     1.0000     0.1853     0.9563     0.9563    -0.0000
 53 H      0.8504     1.0000     0.1496     0.9602     0.9602    -0.0000
 54 H      0.8478     1.0000     0.1522     0.9632     0.9632    -0.0000
 55 H      0.8478     1.0000     0.1522     0.9615     0.9615    -0.0000
 56 H      0.8358     1.0000     0.1642     0.9586     0.9586    -0.0000
 57 H      0.8357     1.0000     0.1643     0.9585     0.9585     0.0000
 58 H      0.8477     1.0000     0.1523     0.9615     0.9615    -0.0000
 59 H      0.8476     1.0000     0.1524     0.9632     0.9632     0.0000
 60 H      0.8504     1.0000     0.1496     0.9602     0.9602    -0.0000
 61 H      0.8148     1.0000     0.1852     0.9564     0.9564    -0.0000
 62 H      0.8146     1.0000     0.1854     0.9562     0.9562    -0.0000
 63 H      0.8504     1.0000     0.1496     0.9602     0.9602     0.0000
 64 H      0.8358     1.0000     0.1642     0.9586     0.9586    -0.0000
 65 H      0.8478     1.0000     0.1522     0.9615     0.9615    -0.0000
 66 H      0.8476     1.0000     0.1524     0.9631     0.9631    -0.0000
 67 H      0.8478     1.0000     0.1522     0.9633     0.9633    -0.0000
 68 H      0.8477     1.0000     0.1523     0.9615     0.9615    -0.0000
 69 H      0.8357     1.0000     0.1643     0.9585     0.9585    -0.0000

  Mayer bond orders larger than 0.100000
B(  0-C ,  1-C ) :   0.9336 B(  0-C ,  2-C ) :  -0.1046 B(  0-C ,  4-C ) :  -0.1768 
B(  0-C ,  5-C ) :   1.1951 B(  0-C , 19-C ) :   1.3189 B(  1-C ,  2-C ) :   1.1990 
B(  1-C ,  3-C ) :  -0.1753 B(  1-C ,  5-C ) :  -0.1037 B(  1-C ,  6-C ) :   1.3199 
B(  2-C ,  3-C ) :   1.1943 B(  2-C ,  4-C ) :  -0.1048 B(  2-C ,  8-C ) :  -0.1403 
B(  2-C ,  9-C ) :   1.0207 B(  2-C , 10-C ) :  -0.1390 B(  3-C ,  4-C ) :   0.9322 
B(  3-C ,  5-C ) :  -0.1060 B(  3-C , 12-C ) :   1.3134 B(  4-C ,  5-C ) :   1.1961 
B(  4-C , 13-C ) :   1.3156 B(  5-C , 15-C ) :  -0.1411 B(  5-C , 16-C ) :   1.0207 
B(  5-C , 17-C ) :  -0.1390 B(  6-C ,  7-C ) :   1.1830 B(  6-C , 40-H ) :   0.9654 
B(  7-C ,  8-C ) :   1.3734 B(  7-C , 26-O ) :   0.1022 B(  7-C , 41-H ) :   0.9813 
B(  8-C ,  9-C ) :   1.2313 B(  8-C , 10-C ) :  -0.1464 B(  8-C , 23-C ) :   0.8880 
B(  8-C , 26-O ) :  -0.1867 B(  9-C , 10-C ) :   1.2203 B( 10-C , 11-C ) :   1.3801 
B( 10-C , 25-C ) :   0.8918 B( 10-C , 27-O ) :  -0.1532 B( 11-C , 12-C ) :   1.1881 
B( 11-C , 42-H ) :   0.9799 B( 12-C , 43-H ) :   0.9673 B( 13-C , 14-C ) :   1.1853 
B( 13-C , 44-H ) :   0.9666 B( 14-C , 15-C ) :   1.3752 B( 14-C , 28-O ) :   0.1022 
B( 14-C , 45-H ) :   0.9809 B( 15-C , 16-C ) :   1.2305 B( 15-C , 17-C ) :  -0.1464 
B( 15-C , 20-C ) :   0.8875 B( 15-C , 28-O ) :  -0.1868 B( 16-C , 17-C ) :   1.2211 
B( 17-C , 18-C ) :   1.3787 B( 17-C , 22-C ) :   0.8923 B( 17-C , 29-O ) :  -0.1533 
B( 18-C , 19-C ) :   1.1853 B( 18-C , 46-H ) :   0.9804 B( 19-C , 47-H ) :   0.9660 
B( 20-C , 21-N ) :   1.1326 B( 20-C , 28-O ) :   1.9405 B( 21-N , 22-C ) :   1.0706 
B( 21-N , 30-C ) :   0.8200 B( 22-C , 29-O ) :   1.8819 B( 23-C , 24-N ) :   1.1327 
B( 23-C , 26-O ) :   1.9404 B( 24-N , 25-C ) :   1.0705 B( 24-N , 31-C ) :   0.8200 
B( 25-C , 27-O ) :   1.8819 B( 30-C , 32-C ) :   0.8735 B( 30-C , 33-C ) :   0.8739 
B( 30-C , 48-H ) :   0.9991 B( 31-C , 36-C ) :   0.8740 B( 31-C , 37-C ) :   0.8734 
B( 31-C , 49-H ) :   0.9991 B( 32-C , 35-C ) :   0.8470 B( 32-C , 50-H ) :   0.9645 
B( 32-C , 51-H ) :   0.9763 B( 33-C , 34-C ) :   0.8475 B( 33-C , 52-H ) :   0.9764 
B( 33-C , 53-H ) :   0.9646 B( 34-C , 54-H ) :   0.9841 B( 34-C , 55-H ) :   0.9699 
B( 34-C , 56-H ) :   0.9821 B( 35-C , 57-H ) :   0.9822 B( 35-C , 58-H ) :   0.9698 
B( 35-C , 59-H ) :   0.9841 B( 36-C , 38-C ) :   0.8472 B( 36-C , 60-H ) :   0.9645 
B( 36-C , 61-H ) :   0.9761 B( 37-C , 39-C ) :   0.8474 B( 37-C , 62-H ) :   0.9766 
B( 37-C , 63-H ) :   0.9645 B( 38-C , 64-H ) :   0.9823 B( 38-C , 65-H ) :   0.9698 
B( 38-C , 66-H ) :   0.9840 B( 39-C , 67-H ) :   0.9842 B( 39-C , 68-H ) :   0.9699 
B( 39-C , 69-H ) :   0.9820 

-------
TIMINGS
-------

Total SCF time: 0 days 0 hours 1 min 27 sec 

Total time                  ....      87.472 sec
Sum of individual times     ....      79.942 sec  ( 91.4%)

SCF preparation             ....       0.115 sec  (  0.1%)
Fock matrix formation       ....      78.797 sec  ( 90.1%)
  Startup                   ....       0.013 sec  (  0.0% of F)
  Split-RI-J                ....      22.252 sec  ( 28.2% of F)
  XC integration            ....      63.896 sec  ( 81.1% of F)
    Basis function eval.    ....      11.442 sec  ( 17.9% of XC)
    Density eval.           ....      17.799 sec  ( 27.9% of XC)
    XC-Functional eval.     ....       1.724 sec  (  2.7% of XC)
    XC-Potential eval.      ....      32.247 sec  ( 50.5% of XC)
Diagonalization             ....       0.000 sec  (  0.0%)
Density matrix formation    ....       0.069 sec  (  0.1%)
Total Energy calculation    ....       0.018 sec  (  0.0%)
Population analysis         ....       0.100 sec  (  0.1%)
Orbital Transformation      ....       0.212 sec  (  0.2%)
Orbital Orthonormalization  ....       0.000 sec  (  0.0%)
DIIS solution               ....       0.352 sec  (  0.4%)
SOSCF solution              ....       0.279 sec  (  0.3%)
Finished LeanSCF after  87.6 sec

Maximum memory used throughout the entire LEANSCF-calculation: 141.4 MB


-------------------------------------------------------------------------------
                          DFT DISPERSION CORRECTION                            
                                                                               
                                DFTD4 V3.4.0                                   
-------------------------------------------------------------------------------
The R2SCAN3C composite method is recognized
Using three-body term ABC
Active option DFTDOPT                   ...         5   

-------------------------   ----------------
Dispersion correction           -0.040289102
-------------------------   ----------------

------------------   -----------------
gCP correction             0.034723223
------------------   -----------------

-------------------------   --------------------
FINAL SINGLE POINT ENERGY     -1723.911235618926
-------------------------   --------------------

                                *** OPTIMIZATION RUN DONE ***


------------------------------------------------------------------------------
                              ORCA PROPERTY CALCULATIONS
------------------------------------------------------------------------------

GBWName                                 ... pdi_terminal_functionalized_opt.gbw
Number of atoms                         ...     70
Number of basis functions               ...    940
Max core memory                         ...   8000 MB

Electric properties:
Dipole moment                           ... YES
Quadrupole moment                       ...  NO
Static polarizability (Dipole/Dipole)   ...  NO
Static polarizability (Dipole/Quad.)    ...  NO
Static polarizability (Quad./Quad.)     ...  NO
Static polarizability (Velocity)        ...  NO
Static hyperpolarizability              ...  NO

Atomic electric properties:
Dipole moment                           ...  NO
Quadrupole moment                       ...  NO
Static polarizability                   ...  NO

Choice of electric origin               ... Center of mass
Position of electric origin             ...    -0.008301    -0.023496    -0.361980

General magnetic properties:
Magnetizability                         ...  NO

EPR properties:
g-Tensor (aka g-matrix)                 ...  NO
Zero-Field splitting spin-orbit         ...  NO
Zero-field splitting spin-spin          ...  NO
Hyperfine couplings                     ...  NO (   0 nuclei)
Quadrupole couplings                    ...  NO (   0 nuclei)
Contact density                         ...  NO (   0 nuclei)

NMR properties:
Chemical shifts                         ...  NO (   0 nuclei)
Spin-rotation constants                 ...  NO (   0 nuclei)
Spin-spin couplings                     ...  NO (   0 nuclei,    0 pairs)

Choice of magnetic origin               ... GIAO
Position of magnetic origin             ...     0.000000     0.000000     0.000000

Properties with geometric perturbations:
SCF Hessian                             ...  NO
IR spectrum                             ...  NO
VCD spectrum                            ...  NO
X-ray spectroscopy properties:
SCF XES/XAS/RIXS spectra                ...  NO

SCF SOC stabilization energy            ...  NO
Diagonal Born-Oppenheimer correction    ...  NO

-------------
DIPOLE MOMENT
-------------

Method             : SCF
Type of density    : Electron Density
Multiplicity       :   1
Irrep              :   0
Energy             : -1723.9056697400610574 Eh
Basis              : AO
                                X                 Y                 Z
Electronic contribution:      0.000204902      -0.001701260       0.050864590
Nuclear contribution   :     -0.000128566       0.001621387      -0.054362905
                        -----------------------------------------
Total Dipole Moment    :      0.000076336      -0.000079873      -0.003498315
                        -----------------------------------------
Magnitude (a.u.)       :      0.003500059
Magnitude (Debye)      :      0.008896444



--------------------
Rotational spectrum 
--------------------
 
Rotational constants in cm-1:             0.009650             0.001204             0.001144 
Rotational constants in MHz :           289.304779            36.087406            34.296633 

Dipole components along the rotational axes: 
x,y,z [a.u.] :     0.000092    -0.000092     0.003498 
x,y,z [Debye]:     0.000233    -0.000235     0.008890 

 

Dipole moment calculation done in   0.0 sec 

Maximum memory used throughout the entire PROP-calculation: 111.3 MB

--------------------------------
SUGGESTED CITATIONS FOR THIS RUN
--------------------------------

Below you find a list of papers that are relevant to this ORCA run
We neither can nor want to force you to cite these papers, but we appreciate if you do
You receive ORCA, which is the product of decades of hard work by many enthusiastic individuals, for free
The only thing we kindly ask in return is that you cite our papers,
We deeply appreciate it, if you show your appreciation for ORCA by not just citing the generic ORCA reference.

Please note that relegating all ORCA citations to the supporting information does *not* help us.
SI sections are not indexed - citations you put there will not count into any citation statistics
But we need these citations in order to attract the funding resources that allow us to do what we are doing

Therefore, if you are a happy ORCA user, please consider citing a few of the papers listed below in the main body of your paper

In addition to the list printed below, the program has created the file pdi_terminal_functionalized_opt.bibtex that contains the list in bibtex format
You can import this file easily into all common literature databanks and citation aid programs

It goes without saying that in many instances, there are alternative algorithms to achieve similar
results as the ones you have gotten from ORCA. It is, of course, also the case that in some instances
ORCA just re-implements algorithms worked out by others. We are fully aware of that and we are also
fully appreciative of our colleagues work. Hence this citation list should not be read as indicating
that the listed papers, which are focused on our own work, are the only ones worth citing. It simply
meant to make it easier for users to cite ORCA specific papers. It is not a substitute for doing your
own literature research and citing the relevant literature in a scientifically appropriate manner.

List of essential papers. We consider these as the minimum necessary citations

  1. Grimme, S.; Hansen, A.; Ehlert, S.; Mewes, J.
     r2SCAN-3c: A 'Swiss army knife' composite electronic-structure method
     J. Chem. Phys. 2021 154 , 064103
     doi.org/10.1063/5.0040021
  2. Neese, F.
     Software update: the ORCA program system, version 6.0
     WIRES Comput. Molec. Sci. 2025 15(1), e70019
     doi.org/10.1002/wcms.70019

List of papers to cite with high priority. The work reported in these papers was absolutely
necessary for this run to complete.
Our perspective: the developers of density functionals and basis sets usually get cited in chemistry papers
Good! But without the algorithms to do something with them, the functionals or basis sets would not do anything.
Hence, in our opinion, the algorithm design and method developments papers are equally worthy of getting cited

  1. Neese, F.
     An improvement of the resolution of the identity approximation for the formation of the Coulomb matrix
     J. Comp. Chem. 2003 24(14), 1740-1747
     doi.org/10.1002/jcc.10318
  2. Caldeweyher, E.; Bannwarth, C.; Grimme, S.
     Extension of the D3 dispersion coefficient model
     J. Chem. Phys. 2017 147 , 034112
     doi.org/10.1063/1.4993215
  3. Lehtola, S.; Steigemann, C.; Oliveira, M.; Marques, M.
     Recent developments in Libxc - A comprehensive library of functionals for density functional theory
     Software X 2018 7 , 
     doi.org/10.1016/j.softx.2017.11.002
  4. Caldeweyher, E.; Ehlert, S.; Hansen, A.; Neugebauer, H.; Spicher, S.; Bannwarth, C.; Grimme, S.
     A generally applicable atomic-charge dependent London dispersion correction
     J. Chem. Phys. 2019 150 , 154122
     doi.org/10.1063/1.5090222
  5. Neese, F.
     The SHARK Integral Generation and Digestion System
     J. Comp. Chem. 2022 44(3), 381
     doi.org/10.1002/jcc.26942

List of suggested additional citations. These are papers that are important in the 'surrounding' of 
of this run, or papers that preceded the highly important papers. If you like your results we are grateful for a citation.

  1. Neese, F.
     The ORCA program system
     WIRES Comput. Molec. Sci. 2012 2(1), 73-78
     doi.org/10.1002/wcms.81
  2. Neese, F.
     Software update: the ORCA program system, version 4.0
     WIRES Comput. Molec. Sci. 2018 8(1), 1-6
     doi.org/10.1002/wcms.1327
  3. Neese, F.; Wennmohs, F.; Becker, U.; Riplinger, C.
     The ORCA quantum chemistry program package
     J. Chem. Phys. 2020 152(22), 224108
     doi.org/10.1063/5.0004608
  4. Neese, F.
     Software update: The ORCA program system—Version 5.0
     WIRES Comput. Molec. Sci. 2022 12(1), e1606
     doi.org/10.1002/wcms.1606

List of optional additional citations

  1. Neese, F.
     Approximate second-order SCF convergence for spin unrestricted wavefunctions
     Chem. Phys. Lett. 2000 325(1-3), 93-98
     doi.org/10.1016/s0009-2614(00)00662-x

Timings for individual modules:

Sum of individual times          ...     2898.126 sec (=  48.302 min)
Startup calculation              ...       61.262 sec (=   1.021 min)   2.1 %
SCF iterations                   ...     1909.366 sec (=  31.823 min)  65.9 %
Property calculations            ...        0.169 sec (=   0.003 min)   0.0 %
SCF Gradient evaluation          ...      926.949 sec (=  15.449 min)  32.0 %
Geometry relaxation              ...        0.380 sec (=   0.006 min)   0.0 %
                             ****ORCA TERMINATED NORMALLY****
TOTAL RUN TIME: 0 days 0 hours 48 minutes 21 seconds 532 msec
