
                                 *****************
                                 * O   R   C   A *
                                 *****************

                                            #,                                       
                                            ###                                      
                                            ####                                     
                                            #####                                    
                                            ######                                   
                                           ########,                                 
                                     ,,################,,,,,                         
                               ,,#################################,,                 
                          ,,##########################################,,             
                       ,#########################################, ''#####,          
                    ,#############################################,,   '####,        
                  ,##################################################,,,,####,       
                ,###########''''           ''''###############################       
              ,#####''   ,,,,##########,,,,          '''####'''          '####       
            ,##' ,,,,###########################,,,                        '##       
           ' ,,###''''                  '''############,,,                           
         ,,##''                                '''############,,,,        ,,,,,,###''
      ,#''                                            '''#######################'''  
     '                                                          ''''####''''         
             ,#######,   #######,   ,#######,      ##                                
            ,#'     '#,  ##    ##  ,#'     '#,    #''#        ,####,    ,#,          
            ##       ##  ##   ,#'  ##            #'  '#       #'       ,# #          
            ##       ##  #######   ##           ,######,      #####,      #          
            '#,     ,#'  ##    ##  '#,     ,#' ,#      #,     #,   #      #          
             '#######'   ##     ##  '#######'  #'      '#     '####' #    #          



                #########################################################
                #                        -***-                          #
                #          Department of theory and spectroscopy        #
                #                                                       #
                #                      Frank Neese                      #
                #                                                       #
                #     Directorship, Architecture, Infrastructure        #
                #                    SHARK, DRIVERS                     #
                #        Core code/Algorithms in most modules           #
                #                                                       #
                #        Max Planck Institute fuer Kohlenforschung      #
                #                Kaiser Wilhelm Platz 1                 #
                #                 D-45470 Muelheim/Ruhr                 #
                #                      Germany                          #
                #                                                       #
                #                  All rights reserved                  #
                #                        -***-                          #
                #########################################################


                         Program Version 6.1.1  -  RELEASE   -
                                (GIT: $487d211cc3$)
                          ($2025-11-21 10:33:24 +0100$)


 With contributions from (in alphabetic order):
[Max-Planck-Institut fuer Kohlenforschung]                               
  Daniel Aravena         : Magnetic Suceptibility                        
  Michael Atanasov       : Ab Initio Ligand Field Theory (pilot matlab implementation)
  Alexander A. Auer      : GIAO ZORA, VPT2 properties, NMR spectrum      
  Ute Becker             : All parallelization in ORCA, NUMFREQ, NUMCALC 
  Giovanni Bistoni       : ED, misc. LED, open-shell LED, HFLD           
  Dmytro Bykov           : pre 5.0 version of the SCF Hessian            
  Marcos Casanova-Páez   : Triplet and SCS-CIS(D). UHF-(DLPNO)-IP/EA/STEOM-CCSD. UHF-CVS-IP/STEOM-CCSD   
  Vijay G. Chilkuri      : MRCI spin determinant printing, contributions to CSF-ICE 
  Pauline Colinet        : FMM embedding                                 
  Dipayan Datta          : RHF DLPNO-CCSD density                        
  Achintya Kumar Dutta   : EOM-CC, STEOM-CC                              
  Nicolas Foglia         : Exact transition moments, OPA infrastructure, MCD improvements    
  Dmitry Ganyushin       : Spin-Orbit,Spin-Spin,Magnetic field MRCI      
  Miquel Garcia-Rates    : C-PCM and meta-GGA Hessian, CCSD/C-PCM, Gaussian charge scheme 
  Tiago L. C. Gouveia    : GS-ROHF, GS-ROCIS                             
  Yang Guo               : DLPNO-NEVPT2, F12-NEVPT2, CIM, IAO-localization        
  Andreas Hansen         : Spin unrestricted coupled pair/coupled cluster methods 
  Ingolf Harden          : AUTO-CI MPn and infrastructure                
  Benjamin Helmich-Paris : MC-RPA, TRAH-(SCF,CASSCF), AVAS, COSX integrals, SCF dyn. polar., MC-PDFT, srDFT 
  Lee Huntington         : MR-EOM, pCC                                   
  Robert Izsak           : Overlap fitted RIJCOSX, COSX-SCS-MP3, EOM     
  Riya Kayal             : Wick's Theorem for AUTO-CI, AUTO-CI UHF-CCSDT 
  Emily Kempfer          : AUTO-CI RHF CISDT and CCSDT, approximate NEVPT4
  Christian Kollmar      : KDIIS, OOCD, Brueckner-CCSD(T), CCSD density, CASPT2, CASPT2-K, improved NEVPT2 
  Axel Koslowski         : Symmetry handling                             
  Simone Kossmann        : meta-GGA functionals, TD-DFT gradient, OOMP2, (MP2 Hessian; deprecated post 5.0) 
  Lucas Lang             : DCDCAS, Hyperfine gauge corrections, ICE-SOC+SSC
  Marvin Lechner         : AUTO-CI (C++ implementation), FIC-MRCC        
  Spencer Leger          : CASSCF response                               
  Dagmar Lenk            : GEPOL surface, SMD, ORCA-2-JSON               
  Dimitrios Liakos       : Extrapolation schemes; Compound Job, Property file
  Dimitrios Manganas     : Further ROCIS development; embedding schemes. LFT, Crystal Embedding 
  Dimitrios Pantazis     : SARC Basis sets                               
  Anastasios Papadopoulos: AUTO-CI, single reference methods and gradients 
  Taras Petrenko         : pre 6.0 DFT Hessian and TD-DFT gradient,  ECA, NRVS 
  Petra Pikulova         : Analytic Raman intensities                    
  Peter Pinski           : DLPNO-MP2, DLPNO-MP2 Gradient                 
  Shashank Vittal Rao    : ES-AILFT, MagRelax                            
  Christoph Reimann      : Effective Core Potentials                     
  Marius Retegan         : Local ZFS, SOC                                
  Christoph Riplinger    : Optimizer, TS searches, QM/MM, DLPNO-CCSD(T), (RO)-DLPNO pert. Triples 
  Michael Roemelt        : Original ROCIS implementation, recursive CI coupling coefficients
  Masaaki Saitow         : Open-shell DLPNO-CCSD energy and density      
  Barbara Sandhoefer     : DKH picture change effects                    
  Yorick L. A. Schmerwitz: GMF and freeze-and-release deltaSCF, NEB S-IDPP initial path                    
  Kantharuban Sivalingam : CASSCF convergence/infrastructure, NEVPT2, NEVPT3, NEVPT4(SD), FIC-MRCI and CEPA variants
  Bernardo de Souza      : ESD, SOC TD-DFT                               
  Georgi L. Stoychev     : AutoAux, RI-MP2 NMR, DLPNO-MP2 response, X2C  
  Van Anh Tran           : RI-MP2 g-tensors                              
  Willem Van den Heuvel  : Paramagnetic NMR                              
  Zikuan Wang            : NOTCH, Electric field optimization            
  Frank Wennmohs         : Technical directorship and infrastructure     
  Hang Xu                : AUTO-CI-Response properties                   
                                                                         
[FACCTs GmbH]                                                            
  Markus Bursch, Nicolas Foglia, Miquel Garcia-Rates, Ingolf Harden, Hagen Neugebauer, Anastasios Papadopoulos, 
  Christoph Riplinger, Bernardo de Souza, Georgi L. Stoychev                                                    
                                                                 
  APM, various basis sets, CI-OPT, improved COSX, DLPNO-Multilevel,           
  DOCKER, DRACO, updates on ESD, Fragmentator, GOAT, IRC, LR-CPCM, L-BFGS, MBIS, meta-GGA TD-DFT gradient, ML-optimized integration grids, 
  MM, NACMEs, nearIR, NEB, NEB-TS, NL-DFT gradient (VV10), 2- and 3-layer-ONIOM, interface openCOSMO-RS, QMMM,   
  Crystal-QMMM, RESP, rigid body optimization, SF, symmetry and pop. for TD-DFT, various functionals, SOLVATOR                                   
                                                                         
[Other institutions]                                                     
  V. Asgeirsson          : NEB                                           
  Christoph Bannwarth    : sTDA-DFT, sTD-DFT, PBEh-3c, B97-3c, D3        
  Giovanni Bistoni       : ETS/NOCV, ADLD/ADEX, COVALED                  
  Martin Brehm           : Molecular dynamics                            
  Ronald Cardenas        : ETS/NOCV                                      
  Martina Colucci        : COVALED                                       
  Sebastian Ehlert       : rSCAN, r2SCAN, r2SCAN-3c, D4, dhf basis sets  
  Marvin Friede          : D4 for Fr, Ra, Ac-Lr                          
  Lars Goerigk           : TD-DFT with DH, B97 family of functionals     
  Stefan Grimme          : VdW corrections, initial TS optimization, DFT functionals, gCP, sTDA/sTD-DF 
  Waldemar Hujo          : DFT-NL                                        
  H. Jonsson             : NEB                                           
  Holger Kruse           : gCP                                           
  Marcel Mueller         : wB97X-3c, vDZP basis set                      
  Hagen Neugebauer       : wr2SCAN, Native XTB                           
  Gianluca Regni         : ADLD/ADEX                                     
  Tobias Risthaus        : pre 6.0 range-separated hybrid DFT and stability analysis
  Lukas Wittmann         : regularized MP2, r2SCAN double-hybrids, wr2SCAN        
                                                                         
We gratefully acknowledge several colleagues who have allowed us to      
interface, adapt or use parts of their codes:                            
  Ed Valeev, F. Pavosevic, A. Kumar             : LibInt (2-el integral package), F12 methods 
  Garnet Chan, S. Sharma, J. Yang, R. Olivares  : DMRG                   
  Ulf Ekstrom                                   : XCFun DFT Library      
  Mihaly Kallay                                 : mrcc  (arbitrary order and MRCC methods)
  Frank Weinhold                                : gennbo (NPA and NBO analysis)           
  Simon Mueller                                 : openCOSMO-RS                            
  Christopher J. Cramer and Donald G. Truhlar   : smd solvation model                     
  S Lehtola, MJT Oliveira, MAL Marques          : LibXC Library                           
  Liviu Ungur et al                             : ANISO software                          


 Your calculation uses the libint2 library for the computation of 2-el integrals
 For citations please refer to: http://libint.valeyev.net

 Your ORCA version has been built with support for libXC version: 7.0.0
 For citations please refer to: https://libxc.gitlab.io

 This ORCA versions uses:
   CBLAS   interface :  Fast vector & matrix operations
   LAPACKE interface :  Fast linear algebra routines
   SCALAPACK package :  Parallel linear algebra routines
   Shared memory     :  Shared parallel matrices


  ***********************************
  * Starting time: Sat Jul 18 20:45:17 2026
  * Host name:     Angzes-MacBook-Pro.local
  * Process ID:    25118
  * Working dir.:  /Users/liangze/Desktop/Tsinghua 2026 Summer/pdi_h2o2_production/pdi-theory-demo/calculations/pdi/excited_state_calculations/soc
  ***********************************

NOTE: MaxCore=2500 MB was set to SCF,MP2,MDCI,CIPSI,MRCI,RASCI and CIS
      => If you want to overwrite this, your respective input block should be placed after the MaxCore statement


***************************************
The coordinates will be read from file: pdi_opt.xyz
***************************************


Your calculation utilizes the atom-pairwise dispersion correction
with the zero-damping scheme (D30)


Your calculation utilizes the SMD solvation module
Please cite in your paper:
Marenich, A. V.; Cramer, C. J.; Truhlar, D. G. J. Phys. Chem. B 2009, 113, 6378 

XCFun DFT library Copyright 2009-2010 Ulf Ekstrom and contributors.
See http://admol.org/xcfun for more information.
This is free software; see the source code for copying conditions.
There is ABSOLUTELY NO WARRANTY; not even for MERCHANTABILITY or FITNESS FOR A PARTICULAR PURPOSE.
For details see the documentation.
Scientific users of this library should cite U. Ekstrom, L. Visscher, R. Bast, A. J. Thorvaldsen and K. Ruud;
J.Chem.Theor.Comp. 2010, DOI: 10.1021/ct100117s
XCFun Version 0.99 

Warning: RI is on but no J-basis has been assigned. Assigning Def2/J (nothing to worry about!)
================================================================================

----- Orbital basis set information -----
Your calculation utilizes the basis: 6-31+G(d,p)
   H-He, Li-Ne : W. J. Hehre, R. Ditchfield and J.A. Pople, J. Chem. Phys. 56, 2257 (1972).
                 Note: He and Ne are unpublished basis sets taken from the Gaussian program.
                 Note: Li and B from J. D. Dill and J. A. Pople, J. Chem. Phys. 62, 2921 (1975).
   Na - Ar     : M. M. Francl, W. J. Pietro, W. J. Hehre, J. S. Binkley, M. S. Gordon, 
                 D. J. DeFrees and J. A. Pople, J. Chem. Phys. 77, 3654 (1982).
   K - Zn      : V. A. Rassolov, J. A. Pople, M. A. Ratner, and T. L. Windus, J. Chem. Phys. 109, 1223 (1998).
   Additional Pol./Diff. from the 6-311G equivalent.

----- AuxJ basis set information -----
Your calculation utilizes the auxiliary basis: def2/J
   H-Rn: F. Weigend, Phys. Chem. Chem. Phys. 8, 1057 (2006).
   Fr-Lr: K. Eichkorn, F. Weigend, O. Treutler, R. Ahlrichs; Theor. Chem. Acc. 97, 119 (1997).

================================================================================
                                        WARNINGS
                       Please study these warnings very carefully!
================================================================================


WARNING: (CIS/TDDFT): Spin-orbit needs TRIPLETS set to TRUE
  ===> : ajusting flags

WARNING: CIS/ROCIS methods need fully converged wavefunctions
  ===> : Setting SCFConvForced true
         You can overwrite this default with %scf ConvForced false 


================================================================================
                                       INPUT FILE
================================================================================
NAME = pdi_soc.inp
|  1> ! wB97X-D3 6-31+G(d,p) TightSCF RIJCOSX SMD(Water)
|  2> 
|  3> %pal
|  4>     nprocs 4
|  5> end
|  6> 
|  7> %maxcore 2500
|  8> 
|  9> %tddft
| 10>     TDA true
| 11>     NRoots 10
| 12>     DoSOC true
| 13>     TPrint 1e-8
| 14> end
| 15> 
| 16> * xyzfile 0 1 pdi_opt.xyz
| 17> 
| 18>                          ****END OF INPUT****
================================================================================

                       ****************************
                       * Single Point Calculation *
                       ****************************

---------------------------------
CARTESIAN COORDINATES (ANGSTROEM)
---------------------------------
  C     -0.732487    1.243518    0.009067
  C      0.729438    1.242480   -0.001728
  C      1.425335   -0.001984    0.001697
  C      0.727539   -1.245233   -0.018503
  C     -0.734417   -1.244165   -0.011748
  C     -1.430298    0.000318   -0.013158
  C      1.471217    2.423611    0.002793
  C      2.862624    2.417097    0.003448
  C      3.557420    1.223028    0.000311
  C      2.852567   -0.003015   -0.007379
  C      3.555555   -1.230131   -0.014091
  C      2.858939   -2.423093   -0.024683
  C      1.467524   -2.427477   -0.026387
  C     -1.476214   -2.425255   -0.021914
  C     -2.867620   -2.418715   -0.023711
  C     -3.562399   -1.224658   -0.016114
  C     -2.857530    0.001336   -0.004086
  C     -3.560501    1.228435    0.006962
  C     -2.863868    2.421340    0.022025
  C     -1.472451    2.425715    0.022596
  C     -5.038848   -1.245910   -0.016658
  N     -5.649990    0.003507   -0.004712
  C     -5.036917    1.251970    0.007536
  C      5.033871    1.244304    0.000422
  N      5.645026   -0.005137   -0.006765
  C      5.031970   -1.253647   -0.014241
  O      5.700164    2.266134    0.006626
  O      5.696703   -2.276494   -0.020118
  O     -5.705155   -2.267697   -0.027028
  O     -5.701635    2.274793    0.017581
  H     -6.663771    0.004294   -0.004797
  H      6.658807   -0.005910   -0.006682
  H      0.971881    3.384589    0.002158
  H      3.424549    3.345904    0.006893
  H      3.419438   -3.352743   -0.031374
  H      0.966738   -3.387632   -0.037797
  H     -0.976906   -3.386244   -0.025166
  H     -3.429552   -3.347491   -0.031396
  H     -3.424358    3.350955    0.032956
  H     -0.971634    3.385798    0.037901

----------------------------
CARTESIAN COORDINATES (A.U.)
----------------------------
  NO LB      ZA    FRAG     MASS         X           Y           Z
   0 C     6.0000    0    12.011   -1.384201    2.349908    0.017135
   1 C     6.0000    0    12.011    1.378437    2.347947   -0.003266
   2 C     6.0000    0    12.011    2.693492   -0.003749    0.003206
   3 C     6.0000    0    12.011    1.374850   -2.353150   -0.034965
   4 C     6.0000    0    12.011   -1.387847   -2.351132   -0.022201
   5 C     6.0000    0    12.011   -2.702872    0.000601   -0.024865
   6 C     6.0000    0    12.011    2.780197    4.579960    0.005279
   7 C     6.0000    0    12.011    5.409576    4.567650    0.006516
   8 C     6.0000    0    12.011    6.722549    2.311188    0.000587
   9 C     6.0000    0    12.011    5.390571   -0.005697   -0.013944
  10 C     6.0000    0    12.011    6.719026   -2.324610   -0.026627
  11 C     6.0000    0    12.011    5.402612   -4.578981   -0.046644
  12 C     6.0000    0    12.011    2.773219   -4.587267   -0.049864
  13 C     6.0000    0    12.011   -2.789641   -4.583068   -0.041411
  14 C     6.0000    0    12.011   -5.419016   -4.570708   -0.044806
  15 C     6.0000    0    12.011   -6.731959   -2.314268   -0.030452
  16 C     6.0000    0    12.011   -5.399950    0.002524   -0.007721
  17 C     6.0000    0    12.011   -6.728371    2.321405    0.013156
  18 C     6.0000    0    12.011   -5.411925    4.575669    0.041621
  19 C     6.0000    0    12.011   -2.782530    4.583936    0.042701
  20 C     6.0000    0    12.011   -9.522042   -2.354428   -0.031479
  21 N     7.0000    0    14.007  -10.676934    0.006627   -0.008905
  22 C     6.0000    0    12.011   -9.518394    2.365881    0.014240
  23 C     6.0000    0    12.011    9.512638    2.351393    0.000797
  24 N     7.0000    0    14.007   10.667554   -0.009708   -0.012785
  25 C     6.0000    0    12.011    9.509045   -2.369049   -0.026912
  26 O     8.0000    0    15.999   10.771749    4.282373    0.012522
  27 O     8.0000    0    15.999   10.765209   -4.301950   -0.038017
  28 O     8.0000    0    15.999  -10.781181   -4.285326   -0.051076
  29 O     8.0000    0    15.999  -10.774529    4.298736    0.033223
  30 H     1.0000    0     1.008  -12.592701    0.008115   -0.009065
  31 H     1.0000    0     1.008   12.583321   -0.011168   -0.012627
  32 H     1.0000    0     1.008    1.836590    6.395947    0.004079
  33 H     1.0000    0     1.008    6.471459    6.322842    0.013026
  34 H     1.0000    0     1.008    6.461801   -6.335766   -0.059288
  35 H     1.0000    0     1.008    1.826869   -6.401697   -0.071426
  36 H     1.0000    0     1.008   -1.846085   -6.399073   -0.047557
  37 H     1.0000    0     1.008   -6.480914   -6.325842   -0.059330
  38 H     1.0000    0     1.008   -6.471098    6.332388    0.062278
  39 H     1.0000    0     1.008   -1.836122    6.398230    0.071623

--------------------------------
INTERNAL COORDINATES (ANGSTROEM)
--------------------------------
 C      0   0   0     0.000000000000     0.00000000     0.00000000
 C      1   0   0     1.461965169503     0.00000000     0.00000000
 C      2   1   0     1.425824509901   119.25219820     0.00000000
 C      3   2   1     1.425831352761   121.47634032     1.59808806
 C      4   3   2     1.461972232788   119.25436578   358.58342509
 C      1   2   3     1.425825827817   119.25260883   358.34453573
 C      2   1   3     1.394749429768   122.08639828   180.87923469
 C      7   2   1     1.391422680036   121.86152762   179.46786196
 C      8   7   2     1.381503008195   120.46200751   359.96488015
 C      9   8   7     1.414233553325   119.91168710     0.17673467
 C     10   9   8     1.414231577681   120.29875946   179.83799976
 C     11  10   9     1.381500831192   119.91130356   180.14846457
 C     12  11  10     1.391422584451   120.46246822   359.88397004
 C      5   4   3     1.394754771157   122.08588900   180.41984543
 C     14   5   4     1.391422017798   121.86168366   180.40184408
 C     15  14   5     1.381501592221   120.46192979     0.03668585
 C     16  15  14     1.414229691301   119.91163267   359.89015053
 C     17  16  15     1.414234936991   120.29883050   180.15053769
 C     18  17  16     1.381501821770   119.91138819   179.83964160
 C     19  18  17     1.391423191986   120.46253672     0.18320091
 C     16  15  14     1.476601547806   119.36833707   180.06962722
 N     21  16  15     1.390927560518   115.23937471   179.81940943
 C     22  21  16     1.390924028237   127.78301421     0.00000000
 C      9   8   7     1.476604703621   119.36826542   179.97035953
 N     24   9   8     1.390922046151   115.23928265   180.17758640
 C     25  24   9     1.390924433679   127.78308075     0.00000000
 O     24   9   8     1.219886187095   123.93178980     0.19661566
 O     26  25  24     1.219885716155   120.82911856   179.99821669
 O     21  16  15     1.219886050301   123.93183951   359.80053833
 O     23  22  21     1.219883771124   120.82920256   180.01683838
 H     22  21  16     1.013780720214   116.10863453   180.00881616
 H     25  24   9     1.013780822289   116.10851749   180.00600254
 H      7   2   1     1.082966475186   120.41293171   359.23617627
 H      8   7   2     1.085566306931   120.90545699   179.99384229
 H     12  11  10     1.085565796889   118.63292875   179.89846528
 H     13  12  11     1.082965659543   117.72483890   179.82329874
 H     14   5   4     1.082967299495   120.41365349     0.61990530
 H     15  14   5     1.085565778377   120.90532384   180.01721415
 H     19  18  17     1.085566114867   118.63272811   180.15929065
 H     20  19  18     1.082964362970   117.72584605   180.19147050

---------------------------
INTERNAL COORDINATES (A.U.)
---------------------------
 C      0   0   0     0.000000000000     0.00000000     0.00000000
 C      1   0   0     2.762713787692     0.00000000     0.00000000
 C      2   1   0     2.694417838745   119.25219820     0.00000000
 C      3   2   1     2.694430769878   121.47634032     1.59808806
 C      4   3   2     2.762727135367   119.25436578   358.58342509
 C      1   2   3     2.694420329246   119.25260883   358.34453573
 C      2   1   3     2.635694447704   122.08639828   180.87923469
 C      7   2   1     2.629407801795   121.86152762   179.46786196
 C      8   7   2     2.610662338677   120.46200751   359.96488015
 C      9   8   7     2.672514105187   119.91168710     0.17673467
 C     10   9   8     2.672510371761   120.29875946   179.83799976
 C     11  10   9     2.610658224738   119.91130356   180.14846457
 C     12  11  10     2.629407621165   120.46246822   359.88397004
 C      5   4   3     2.635704541467   122.08588900   180.41984543
 C     14   5   4     2.629406550346   121.86168366   180.40184408
 C     15  14   5     2.610659662874   120.46192979     0.03668585
 C     16  15  14     2.672506807020   119.91163267   359.89015053
 C     17  16  15     2.672516719937   120.29883050   180.15053769
 C     18  17  16     2.610660096659   119.91138819   179.83964160
 C     19  18  17     2.629408769240   120.46253672     0.18320091
 C     16  15  14     2.790372534277   119.36833707   180.06962722
 N     21  16  15     2.628472161503   115.23937471   179.81940943
 C     22  21  16     2.628465486459   127.78301421     0.00000000
 C      9   8   7     2.790378497904   119.36826542   179.97035953
 N     24   9   8     2.628461740858   115.23928265   180.17758640
 C     25  24   9     2.628466252633   127.78308075     0.00000000
 O     24   9   8     2.305250808162   123.93178980     0.19661566
 O     26  25  24     2.305249918216   120.82911856   179.99821669
 O     21  16  15     2.305250549659   123.93183951   359.80053833
 O     23  22  21     2.305246242640   120.82920256   180.01683838
 H     22  21  16     1.915767921055   116.10863453   180.00881616
 H     25  24   9     1.915768113947   116.10851749   180.00600254
 H      7   2   1     2.046510050319   120.41293171   359.23617627
 H      8   7   2     2.051423020313   120.90545699   179.99384229
 H     12  11  10     2.051422056472   118.63292875   179.89846528
 H     13  12  11     2.046508508979   117.72483890   179.82329874
 H     14   5   4     2.046511608039   120.41365349     0.61990530
 H     15  14   5     2.051422021490   120.90532384   180.01721415
 H     19  18  17     2.051422657363   118.63272811   180.15929065
 H     20  19  18     2.046506058811   117.72584605   180.19147050

---------------------
BASIS SET INFORMATION
---------------------
There are 4 groups of distinct atoms

 Group   1 Type C   : 11s5p1d contracted to 4s3p1d pattern {6311/311/1}
 Group   2 Type N   : 11s5p1d contracted to 4s3p1d pattern {6311/311/1}
 Group   3 Type O   : 11s5p1d contracted to 4s3p1d pattern {6311/311/1}
 Group   4 Type H   : 4s1p contracted to 2s1p pattern {31/1}

Atom   0C    basis set group =>   1
Atom   1C    basis set group =>   1
Atom   2C    basis set group =>   1
Atom   3C    basis set group =>   1
Atom   4C    basis set group =>   1
Atom   5C    basis set group =>   1
Atom   6C    basis set group =>   1
Atom   7C    basis set group =>   1
Atom   8C    basis set group =>   1
Atom   9C    basis set group =>   1
Atom  10C    basis set group =>   1
Atom  11C    basis set group =>   1
Atom  12C    basis set group =>   1
Atom  13C    basis set group =>   1
Atom  14C    basis set group =>   1
Atom  15C    basis set group =>   1
Atom  16C    basis set group =>   1
Atom  17C    basis set group =>   1
Atom  18C    basis set group =>   1
Atom  19C    basis set group =>   1
Atom  20C    basis set group =>   1
Atom  21N    basis set group =>   2
Atom  22C    basis set group =>   1
Atom  23C    basis set group =>   1
Atom  24N    basis set group =>   2
Atom  25C    basis set group =>   1
Atom  26O    basis set group =>   3
Atom  27O    basis set group =>   3
Atom  28O    basis set group =>   3
Atom  29O    basis set group =>   3
Atom  30H    basis set group =>   4
Atom  31H    basis set group =>   4
Atom  32H    basis set group =>   4
Atom  33H    basis set group =>   4
Atom  34H    basis set group =>   4
Atom  35H    basis set group =>   4
Atom  36H    basis set group =>   4
Atom  37H    basis set group =>   4
Atom  38H    basis set group =>   4
Atom  39H    basis set group =>   4
---------------------------------
AUXILIARY/J BASIS SET INFORMATION
---------------------------------
There are 4 groups of distinct atoms

 Group   1 Type C   : 12s5p4d2f1g contracted to 6s4p3d1f1g pattern {711111/2111/211/2/1}
 Group   2 Type N   : 12s5p4d2f1g contracted to 6s4p3d1f1g pattern {711111/2111/211/2/1}
 Group   3 Type O   : 12s5p4d2f1g contracted to 6s4p3d1f1g pattern {711111/2111/211/2/1}
 Group   4 Type H   : 5s2p1d contracted to 3s1p1d pattern {311/2/1}

Atom   0C    basis set group =>   1
Atom   1C    basis set group =>   1
Atom   2C    basis set group =>   1
Atom   3C    basis set group =>   1
Atom   4C    basis set group =>   1
Atom   5C    basis set group =>   1
Atom   6C    basis set group =>   1
Atom   7C    basis set group =>   1
Atom   8C    basis set group =>   1
Atom   9C    basis set group =>   1
Atom  10C    basis set group =>   1
Atom  11C    basis set group =>   1
Atom  12C    basis set group =>   1
Atom  13C    basis set group =>   1
Atom  14C    basis set group =>   1
Atom  15C    basis set group =>   1
Atom  16C    basis set group =>   1
Atom  17C    basis set group =>   1
Atom  18C    basis set group =>   1
Atom  19C    basis set group =>   1
Atom  20C    basis set group =>   1
Atom  21N    basis set group =>   2
Atom  22C    basis set group =>   1
Atom  23C    basis set group =>   1
Atom  24N    basis set group =>   2
Atom  25C    basis set group =>   1
Atom  26O    basis set group =>   3
Atom  27O    basis set group =>   3
Atom  28O    basis set group =>   3
Atom  29O    basis set group =>   3
Atom  30H    basis set group =>   4
Atom  31H    basis set group =>   4
Atom  32H    basis set group =>   4
Atom  33H    basis set group =>   4
Atom  34H    basis set group =>   4
Atom  35H    basis set group =>   4
Atom  36H    basis set group =>   4
Atom  37H    basis set group =>   4
Atom  38H    basis set group =>   4
Atom  39H    basis set group =>   4


           ************************************************************
           *        Program running with 4 parallel MPI-processes     *
           *              working on a common directory               *
           ************************************************************
------------------------------------------------------------------------------
                             ORCA STARTUP CALCULATIONS
                           -- RI-GTO INTEGRALS CHOSEN --
------------------------------------------------------------------------------
------------------------------------------------------------------------------
                   ___                                                        
                  /   \      - P O W E R E D   B Y -                         
                 /     \                                                     
                 |  |  |   _    _      __       _____    __    __             
                 |  |  |  | |  | |    /  \     |  _  \  |  |  /  |          
                  \  \/   | |  | |   /    \    | | | |  |  | /  /          
                 / \  \   | |__| |  /  /\  \   | |_| |  |  |/  /          
                |  |  |   |  __  | /  /__\  \  |    /   |      \           
                |  |  |   | |  | | |   __   |  |    \   |  |\   \          
                \     /   | |  | | |  |  |  |  | |\  \  |  | \   \       
                 \___/    |_|  |_| |__|  |__|  |_| \__\ |__|  \__/        
                                                                              
                      - O R C A' S   B I G   F R I E N D -                    
                                      &                                       
                       - I N T E G R A L  F E E D E R -                       
                                                                              
 v1 FN, 2020, v2 2021, v3 2022-2024                                           
------------------------------------------------------------------------------


----------------------
SHARK INTEGRAL PACKAGE
----------------------

Number of atoms                             ...     40
Number of basis functions                   ...    590
Number of shells                            ...    270
Maximum angular momentum                    ...      2
Integral batch strategy                     ... SHARK/LIBINT Hybrid
RI-J (if used) integral strategy            ... SPLIT-RIJ (Revised 2003 algorithm where possible)
Printlevel                                  ...      1
Contraction scheme used                     ... SEGMENTED contraction
Prescreening option                         ... SCHWARTZ
   Thresh                                   ... 2.500e-11
   Tcut                                     ... 2.500e-12
   Tpresel                                  ... 2.500e-12 
Coulomb Range Separation                    ... NOT USED
Exchange Range Separation                   ... Long Range
   Mu parameter                             ... 2.500e-01
   Scaling (regular/separated)              ... 1.957e-01 8.043e-01
Robust (split-)RI terms used:
  metric    (central integrals)             ... YES
  density   (r.h.s.  integrals)             ... YES
  potential (l.h.s.  integrals)             ... YES
Multipole approximations                    ... NOT USED
Finite Nucleus Model                        ... NOT USED
CABS basis                                  ... NOT available
Auxiliary Coulomb fitting basis             ... AVAILABLE
   # of basis functions in Aux-J            ...   1580
   # of shells in Aux-J                     ...    500
   Maximum angular momentum in Aux-J        ...      4
Auxiliary J/K fitting basis                 ... NOT available
Auxiliary Correlation fitting basis         ... NOT available
Auxiliary 'external' fitting basis          ... NOT available

Checking pre-screening integrals            ... done (  0.0 sec) Dimension = 270
   => SHARK Basis and OBASIS are compatible. Storing Pre-screening
Shell pair information
Shell pair cut-off parameter TPreSel        ...   2.5e-12
Total number of shell pairs                 ...     36585
Shell pairs after pre-screening             ...     28221
Total number of primitive shell pairs       ...    157740
Primitive shell pairs kept                  ...     74718
          la=0 lb=0:   7384 shell pairs
          la=1 lb=0:  11294 shell pairs
          la=1 lb=1:   4334 shell pairs
          la=2 lb=0:   2730 shell pairs
          la=2 lb=1:   2234 shell pairs
          la=2 lb=2:    245 shell pairs

Checking whether 4 symmetric matrices of dimension 590 fit in memory
:Max Core in MB      =   2500.00
 MB in use           =     31.94
 MB left             =   2468.06
 MB needed           =      5.32
 Data fit in memory  = YES
Calculating RI/J V-Matrix + Cholesky decomp.... done (  0.1 sec)
Calculating Nuclear repulsion               ... done (  0.0 sec) ENN=   2614.830735126149 Eh

Diagonalization of the overlap matrix:
Smallest eigenvalue                        ... 4.592e-09
Time for diagonalization                   ...    0.024 sec
Threshold for overlap eigenvalues          ... 1.000e-07
Number of eigenvalues below threshold      ... 9
Smallest eigenvalue above threshold        ... 1.522e-07

IMPORTANT:
Smallest eigenvalue of S below the DiffSThresh (1.000e-06) while
Thresh>1e-12 and/or TCut>1e-13! In order to avoid SCF convergence issues,
Thresh will be set to at least 1e-12 and TCut to at least 1e-13.
This can be turned off by adding %SCF DiffSThresh -1 END to the input.

Time for construction of square roots      ...    0.004 sec
Total time needed                          ...    0.031 sec

-------------------
DFT GRID GENERATION
-------------------

General Integration Accuracy     IntAcc      ... 4.388
Radial Grid Type                 RadialGrid  ... OptM3 with GC (2021)
Angular Grid (max. ang.)         AngularGrid ... 4 (Lebedev-302)
Angular grid pruning method      GridPruning ... 4 (adaptive)
Weight generation scheme         WeightScheme... mBecke (2022)
Basis function cutoff            BFCut       ... 1.0000e-11
Integration weight cutoff        WCut        ... 1.0000e-14
Partially contracted basis set               ... off
Rotationally invariant grid construction     ... off
Angular grids for H and He will be reduced by one unit
Diffuse basis detected: some atoms will have their outermost
                        angular grid increased by 1.

Total number of grid points                  ...   217116
Total number of batches                      ...     3413
Average number of points per batch           ...       63
Average number of grid points per atom       ...     5428

--------------------
COSX GRID GENERATION
--------------------

GRIDX 1
-------
General Integration Accuracy     IntAcc      ... 3.816
Radial Grid Type                 RadialGrid  ... OptM3 with GC (2021)
Angular Grid (max. ang.)         AngularGrid ... 1 (Lebedev-50)
Angular grid pruning method      GridPruning ... 4 (adaptive)
Weight generation scheme         WeightScheme... mBecke (2022)
Basis function cutoff            BFCut       ... 1.0000e-11
Integration weight cutoff        WCut        ... 1.0000e-14
Partially contracted basis set               ... on
Rotationally invariant grid construction     ... off
Angular grids for H and He will be reduced by one unit
Diffuse basis detected: some atoms will have their outermost
                        angular grid increased by 1.

Total number of grid points                  ...    27513
Total number of batches                      ...      227
Average number of points per batch           ...      121
Average number of grid points per atom       ...      688
UseSFitting                                  ... on

GRIDX 2
-------
General Integration Accuracy     IntAcc      ... 4.020
Radial Grid Type                 RadialGrid  ... OptM3 with GC (2021)
Angular Grid (max. ang.)         AngularGrid ... 2 (Lebedev-110)
Angular grid pruning method      GridPruning ... 4 (adaptive)
Weight generation scheme         WeightScheme... mBecke (2022)
Basis function cutoff            BFCut       ... 1.0000e-11
Integration weight cutoff        WCut        ... 1.0000e-14
Partially contracted basis set               ... on
Rotationally invariant grid construction     ... off
Angular grids for H and He will be reduced by one unit
Diffuse basis detected: some atoms will have their outermost
                        angular grid increased by 1.

Total number of grid points                  ...    67152
Total number of batches                      ...      544
Average number of points per batch           ...      123
Average number of grid points per atom       ...     1679
UseSFitting                                  ... on

GRIDX 3
-------
General Integration Accuracy     IntAcc      ... 4.338
Radial Grid Type                 RadialGrid  ... OptM3 with GC (2021)
Angular Grid (max. ang.)         AngularGrid ... 3 (Lebedev-194)
Angular grid pruning method      GridPruning ... 4 (adaptive)
Weight generation scheme         WeightScheme... mBecke (2022)
Basis function cutoff            BFCut       ... 1.0000e-11
Integration weight cutoff        WCut        ... 1.0000e-14
Partially contracted basis set               ... on
Rotationally invariant grid construction     ... off
Angular grids for H and He will be reduced by one unit
Diffuse basis detected: some atoms will have their outermost
                        angular grid increased by 1.

Total number of grid points                  ...   145455
Total number of batches                      ...     1157
Average number of points per batch           ...      125
Average number of grid points per atom       ...     3636
UseSFitting                                  ... on
Grids setup in   2.2 sec
Initializing property integral containers    ... done (  0.0 sec)

SHARK setup successfully completed in   2.5 seconds

Maximum memory used throughout the entire STARTUP-calculation: 76.9 MB


           ************************************************************
           *        Program running with 4 parallel MPI-processes     *
           *              working on a common directory               *
           ************************************************************
-------------------------------------------------------------------------------
                                 ORCA GUESS
                   Start orbitals & Density for SCF / CASSCF
-------------------------------------------------------------------------------

------------
SCF SETTINGS
------------
Hamiltonian:
 Density Functional     Method          .... DFT(GTOs)
 Exchange Functional    Exchange        .... WB97X-D3
 Correlation Functional Correlation     .... WB97X-D3
 Gradients option       PostSCFGGA      .... off
 Hybrid DFT is turned on
   Fraction HF Exchange ScalHFX         ....  0.195728
   Scaling of DF-GGA-X  ScalDFX         ....  0.000000
   Scaling of DF-GGA-C  ScalDFC         ....  1.000000
   Scaling of DF-LDA-C  ScalLDAC        ....  1.000000
   Perturbative correction              ....  0.000000
 Long-range corrected/Screened/Range-Separated Hybrid DFT is turned on
   Amount of maximum screened exact exchange              ....  0.804272
   Range separation parameter mu (erf(mu*r12)/r12)        ....  0.250000
 RI-approximation to the Coulomb term is turned on
   Number of AuxJ basis functions       .... 1580
   RIJ-COSX (HFX calculated with COS-X)).... on


General Settings:
 Integral files         IntName         .... pdi_soc
 Hartree-Fock type      HFTyp           .... RHF
 Total Charge           Charge          ....    0
 Multiplicity           Mult            ....    1
 Number of Electrons    NEL             ....  200
 Basis Dimension        Dim             ....  590
 Nuclear Repulsion      ENuc            ....   2614.8307351261 Eh

Convergence Acceleration:
 AO-DIIS                CNVDIIS         .... on
   Start iteration      DIISMaxIt       ....    12
   Startup error        DIISStart       ....  0.200000
   # of expansion vecs  DIISMaxEq       ....     5
   Bias factor          DIISBfac        ....   1.050
   Max. coefficient     DIISMaxC        ....  10.000
 MO-DIIS                CNVKDIIS        .... off
 Trust-Rad. Augm. Hess. CNVTRAH         .... auto
   Auto Start mean grad. ratio tolernc. ....  1.125000
   Auto Start start iteration           ....    50
   Auto Start num. interpolation iter.  ....    10
   Max. Number of Micro iterations      ....    24
   Max. Number of Macro iterations      .... Maxiter - #DIIS iter
   Number of Davidson start vectors     ....     2
   Converg. threshold    (grad. norm)   ....   1.000e-05
   Grad. Scal. Fac. for Micro threshold ....   0.100
   Minimum threshold for Micro iter.    ....   1.000e-02
   NR start threshold (gradient norm)   ....   1.000e-04
   Initial trust radius                 ....   0.400
   Minimum AH scaling param. (alpha)    ....   1.000
   Maximum AH scaling param. (alpha)    .... 1000.000
   Quad. conv. algorithm                .... NR
   White noise on init. David. guess    .... on
   Maximum white noise                  ....   0.010
   Pseudo random numbers                .... off
   Inactive MOs                         .... canonical
   Orbital update algorithm             .... Taylor
   Preconditioner                       .... Diag
   Full preconditioner red. dimension   ....   250
 SOSCF                 CNVSOSCF           .... on
   Start iteration     SOSCFMaxIt         ....   150
   Startup grad/error  SOSCFStart         ....  0.003300
   Hessian update      SOSCFHessUp        .... L-BFGS
   Autom. constraints  SOSCFAutoConstrain .... off
 Level Shifting         CNVShift        .... on
   Level shift para.    LevelShift      ....    0.2500
   Turn off err/grad.   ShiftErr        ....    0.0010
 Zerner damping         CNVZerner       .... off
 Static damping         CNVDamp         .... on
   Fraction old density DampFac         ....    0.7000
   Max. Damping (<1)    DampMax         ....    0.9800
   Min. Damping (>=0)   DampMin         ....    0.0000
   Turn off err/grad.   DampErr         ....    0.1000

SCF Procedure:
 Maximum # iterations   MaxIter         ....   125
 SCF integral mode      SCFMode         .... Direct
   Integral package                     .... SHARK and LIBINT hybrid scheme
 Reset frequency        DirectResetFreq ....    20
 Integral Threshold     Thresh          ....  1.000e-12 Eh
 Primitive CutOff       TCut            ....  1.000e-13 Eh

Convergence Tolerance:
 Convergence Check Mode ConvCheckMode   .... Total+1el-Energy
 Convergence forced     ConvForced      .... 1
 Energy Change          TolE            ....  1.000e-08 Eh
 1-El. energy change                    ....  1.000e-05 Eh
 Orbital Gradient       TolG            ....  1.000e-05
 Orbital Rotation angle TolX            ....  1.000e-05
 DIIS Error             TolErr          ....  5.000e-07

------------------------------
INITIAL GUESS: MODEL POTENTIAL
------------------------------
Loading Hartree-Fock densities                     ... done
Calculating cut-offs                               ... done
Initializing the effective Hamiltonian             ... done
Setting up the integral package (SHARK)            ... done
Starting the Coulomb interaction                   ... done (   0.3 sec)
Making the grid                                    ... done (   0.3 sec)
Mapping shells                                     ... done
Starting the XC term evaluation                    ... done (   0.3 sec)
  promolecular density results
     # of electrons  =    199.979432461
     EX              =   -171.559145743
     EC              =     -6.841957993
     EX+EC           =   -178.401103736
Transforming the Hamiltonian                       ... done (   0.0 sec)
Diagonalizing the Hamiltonian                      ... done (   0.0 sec)
Back transforming the eigenvectors                 ... done (   0.0 sec)
Now organizing SCF variables                       ... done
                      ------------------
                      INITIAL GUESS DONE (   1.0 sec)
                      ------------------
             **** ENERGY FILE WAS UPDATED (pdi_soc.en.tmp) ****
Finished Guess after   1.3 sec
Maximum memory used throughout the entire GUESS-calculation: 44.9 MB


           ************************************************************
           *        Program running with 4 parallel MPI-processes     *
           *              working on a common directory               *
           ************************************************************

-------------------------------------------------------------------------------------------
                                      ORCA LEAN-SCF
                              memory conserving SCF solver
-------------------------------------------------------------------------------------------

--------------------
CPCM SOLVATION MODEL
--------------------
CPCM parameters:
  Epsilon                                         ...      78.3550
  Refrac                                          ...       1.3328
  Rsolv                                           ...       1.3000
  Surface type                                    ... GAUSSIAN VDW
  Discretization scheme                           ... Constant charge density
    Threshold for H atoms                         ...       5.0000 (charges/Ang^2)
    Threshold for non-H atoms                     ...       5.0000 (charges/Ang^2)
  Epsilon function type                           ...         CPCM
Solvent:                                          ... WATER
SMD-CDS solvent descriptors:
  Soln                                            ...       1.3328
  Soln25                                          ...       1.3323
  Sola                                            ...       0.0000
  Solb                                            ...       0.0000
  Solg                                            ...       0.0000
  Solc                                            ...       0.0000
  Solh                                            ...       0.0000
Radii:
  Scheme                                          ... Element-dependent radii
  Radius for C  used is    3.4960 Bohr (=   1.8500 Ang.)
  Radius for N  used is    3.5716 Bohr (=   1.8900 Ang.)
  Radius for O  used is    2.8724 Bohr (=   1.5200 Ang.)
  Radius for H  used is    2.2677 Bohr (=   1.2000 Ang.)
Calculating surface                               ...        done! (  0.0s)
Cavity surface points                             ...         2848
Cavity Volume                                     ...    2278.4640
Cavity Surface-area                               ...    1185.4472
Calculating surface distance matrix               ...        done! (  0.0s)
Performing Cholesky decomposition & store         ...        done! (  0.2s)
Overall time for CPCM initialization              ...                 0.2s

----------------------------------------D-I-I-S--------------------------------------------
Iteration    Energy (Eh)           Delta-E    RMSDP     MaxDP     DIISErr   Damp  Time(sec)
-------------------------------------------------------------------------------------------
               ***  Starting incremental Fock matrix formation  ***
    1    -1330.3235079862765815     0.00e+00  1.15e-01  4.69e+00  2.35e-01  0.700  23.4
    2    -1330.5335327775896985    -2.10e-01  1.60e-01  6.56e+00  1.16e-01  0.700  10.2
                               ***Turning on AO-DIIS***
    3    -1330.6332816673816524    -9.97e-02  1.57e-01  7.70e+00  4.57e-02  0.700  10.0
    4    -1330.6948551255077291    -6.16e-02  3.53e-01  1.74e+01  3.28e-02  0.000   9.8
    5    -1330.8308597366194590    -1.36e-01  1.65e-02  8.88e-01  7.04e-03  0.000  10.1
                              *** Initializing SOSCF ***
---------------------------------------S-O-S-C-F--------------------------------------
Iteration    Energy (Eh)           Delta-E    RMSDP     MaxDP     MaxGrad    Time(sec)
--------------------------------------------------------------------------------------
    6    -1330.8315386248978029    -6.79e-04  5.63e-03  2.18e-01  1.27e-03     9.4
               *** Restarting incremental Fock matrix formation ***
    7    -1330.8314176269977906     1.21e-04  1.01e-01  6.99e+00  1.55e-03    24.4
    8    -1330.8314985020288077    -8.09e-05  5.19e-02  3.68e+00  6.90e-04    21.8
    9    -1330.8315135039911183    -1.50e-05  4.13e-02  3.08e+00  3.69e-04    21.3
   10    -1330.8315239359685620    -1.04e-05  2.02e-03  1.19e-01  1.02e-04    19.7
   11    -1330.8315245158951257    -5.80e-07  4.22e-03  2.04e-01  3.48e-05    18.2
   12    -1330.8315245795051851    -6.36e-08  1.04e-03  4.10e-02  1.73e-05    17.0
   13    -1330.8315245895655607    -1.01e-08  1.21e-03  4.04e-02  6.07e-06    16.1
   14    -1330.8315245964777205    -6.91e-09  1.67e-03  7.26e-02  1.88e-06    15.7
                 **** Energy Check signals convergence ****

               *****************************************************
               *                     SUCCESS                       *
               *           SCF CONVERGED AFTER  14 CYCLES          *
               *****************************************************

Recomputing exchange energy using gridx3       ... done (   45.353 sec)
Old exchange energy                            :    -55.576531266 Eh
New exchange energy                            :    -55.576587001 Eh
Exchange energy change after final integration :     -0.000055735 Eh
Total energy after final integration           :  -1330.831580321 Eh

SMD CDS free energy correction energy :                 8.51855     Kcal/mol
Total Energy after SMD CDS correction =             -1330.818005155 Eh
             **** ENERGY FILE WAS UPDATED (pdi_soc.en.tmp) ****

----------------
TOTAL SCF ENERGY
----------------

Total Energy       :      -1330.81800515497457 Eh          -36213.39897 eV

Components:
Nuclear Repulsion  :       2614.83073512614874 Eh           71153.16166 eV
Electronic Energy  :      -3945.60288937174391 Eh         -107365.31297 eV
One Electron Energy:      -7002.10725913432543 Eh         -190537.02524 eV
Two Electron Energy:       3056.50436976258152 Eh           83171.71227 eV
CPCM Dielectric    :         -0.05937034124670 Eh              -1.61555 eV
SMD CDS (Gcds)     :          0.01357516650808 Eh               0.36940 eV

Virial components:
Potential Energy   :      -2652.67944867573624 Eh          -72183.07752 eV
Kinetic Energy     :       1321.86144352076190 Eh           35969.67854 eV
Virial Ratio       :          2.00677571895157

DFT components:
N(Alpha)           :      100.000183234774 electrons
N(Beta)            :      100.000183234774 electrons
N(Total)           :      200.000366469547 electrons
E(XC)              :     -126.437696919347 Eh       

CPCM Solvation Model Properties:
Surface-charge          :         -0.06848239797182
Corrected charge        :          0.00000000000000
Outlying charge corr.   :          0.00024629686594 Eh               0.00670 eV
Free-energy (cav+disp)  :          0.01357516650808 Eh               0.36940 eV

---------------
SCF CONVERGENCE
---------------

  Last Energy change         ...    6.9122e-09  Tolerance :   1.0000e-08
  Last MAX-Density change    ...    7.2560e-02  Tolerance :   1.0000e-07
  Last RMS-Density change    ...    1.6665e-03  Tolerance :   5.0000e-09
  Last DIIS Error            ...    1.2698e-03  Tolerance :   5.0000e-07
  Last Orbital Gradient      ...    1.8825e-06  Tolerance :   1.0000e-05
  Last Orbital Rotation      ...    1.0476e-05  Tolerance :   1.0000e-05


----------------
ORBITAL ENERGIES
----------------

  NO   OCC          E(Eh)            E(eV) 
   0   2.0000     -19.263549      -524.1878 
   1   2.0000     -19.263549      -524.1878 
   2   2.0000     -19.263543      -524.1877 
   3   2.0000     -19.263541      -524.1876 
   4   2.0000     -14.499844      -394.5608 
   5   2.0000     -14.499842      -394.5608 
   6   2.0000     -10.436414      -283.9893 
   7   2.0000     -10.436413      -283.9892 
   8   2.0000     -10.436392      -283.9887 
   9   2.0000     -10.436391      -283.9886 
  10   2.0000     -10.337307      -281.2924 
  11   2.0000     -10.337286      -281.2919 
  12   2.0000     -10.337047      -281.2854 
  13   2.0000     -10.337027      -281.2848 
  14   2.0000     -10.334977      -281.2290 
  15   2.0000     -10.334973      -281.2289 
  16   2.0000     -10.330769      -281.1145 
  17   2.0000     -10.330752      -281.1140 
  18   2.0000     -10.324091      -280.9328 
  19   2.0000     -10.324089      -280.9328 
  20   2.0000     -10.324077      -280.9324 
  21   2.0000     -10.324074      -280.9323 
  22   2.0000     -10.320657      -280.8393 
  23   2.0000     -10.320655      -280.8393 
  24   2.0000     -10.320652      -280.8392 
  25   2.0000     -10.320651      -280.8392 
  26   2.0000     -10.313399      -280.6419 
  27   2.0000     -10.313395      -280.6417 
  28   2.0000     -10.313380      -280.6413 
  29   2.0000     -10.313376      -280.6412 
  30   2.0000      -1.205097       -32.7924 
  31   2.0000      -1.205095       -32.7923 
  32   2.0000      -1.188126       -32.3305 
  33   2.0000      -1.188124       -32.3305 
  34   2.0000      -1.071795       -29.1650 
  35   2.0000      -1.071274       -29.1508 
  36   2.0000      -1.045676       -28.4543 
  37   2.0000      -1.019647       -27.7460 
  38   2.0000      -0.987298       -26.8657 
  39   2.0000      -0.966334       -26.2953 
  40   2.0000      -0.965689       -26.2777 
  41   2.0000      -0.908619       -24.7248 
  42   2.0000      -0.908011       -24.7082 
  43   2.0000      -0.894483       -24.3401 
  44   2.0000      -0.881689       -23.9920 
  45   2.0000      -0.861054       -23.4305 
  46   2.0000      -0.818293       -22.2669 
  47   2.0000      -0.809789       -22.0355 
  48   2.0000      -0.786072       -21.3901 
  49   2.0000      -0.773990       -21.0613 
  50   2.0000      -0.762295       -20.7431 
  51   2.0000      -0.758574       -20.6419 
  52   2.0000      -0.740512       -20.1503 
  53   2.0000      -0.733585       -19.9619 
  54   2.0000      -0.688753       -18.7419 
  55   2.0000      -0.688716       -18.7409 
  56   2.0000      -0.661006       -17.9869 
  57   2.0000      -0.658701       -17.9242 
  58   2.0000      -0.643684       -17.5155 
  59   2.0000      -0.639097       -17.3907 
  60   2.0000      -0.612837       -16.6761 
  61   2.0000      -0.606290       -16.4980 
  62   2.0000      -0.597953       -16.2711 
  63   2.0000      -0.592982       -16.1359 
  64   2.0000      -0.591104       -16.0848 
  65   2.0000      -0.587021       -15.9736 
  66   2.0000      -0.585482       -15.9318 
  67   2.0000      -0.580191       -15.7878 
  68   2.0000      -0.564826       -15.3697 
  69   2.0000      -0.564092       -15.3497 
  70   2.0000      -0.560747       -15.2587 
  71   2.0000      -0.550435       -14.9781 
  72   2.0000      -0.545512       -14.8441 
  73   2.0000      -0.543197       -14.7811 
  74   2.0000      -0.529051       -14.3962 
  75   2.0000      -0.524331       -14.2678 
  76   2.0000      -0.523848       -14.2546 
  77   2.0000      -0.522422       -14.2158 
  78   2.0000      -0.509316       -13.8592 
  79   2.0000      -0.508305       -13.8317 
  80   2.0000      -0.504252       -13.7214 
  81   2.0000      -0.500857       -13.6290 
  82   2.0000      -0.488511       -13.2931 
  83   2.0000      -0.471265       -12.8238 
  84   2.0000      -0.463268       -12.6062 
  85   2.0000      -0.454981       -12.3807 
  86   2.0000      -0.437677       -11.9098 
  87   2.0000      -0.434987       -11.8366 
  88   2.0000      -0.430739       -11.7210 
  89   2.0000      -0.407403       -11.0860 
  90   2.0000      -0.404934       -11.0188 
  91   2.0000      -0.397358       -10.8127 
  92   2.0000      -0.396636       -10.7930 
  93   2.0000      -0.386871       -10.5273 
  94   2.0000      -0.386779       -10.5248 
  95   2.0000      -0.364211        -9.9107 
  96   2.0000      -0.362537        -9.8651 
  97   2.0000      -0.355587        -9.6760 
  98   2.0000      -0.351704        -9.5704 
  99   2.0000      -0.285979        -7.7819 
 100   0.0000      -0.073797        -2.0081 
 101   0.0000      -0.003584        -0.0975 
 102   0.0000       0.008935         0.2431 
 103   0.0000       0.026878         0.7314 
 104   0.0000       0.049135         1.3370 
 105   0.0000       0.058806         1.6002 
 106   0.0000       0.062115         1.6902 
 107   0.0000       0.068742         1.8706 
 108   0.0000       0.072711         1.9786 
 109   0.0000       0.076746         2.0884 
 110   0.0000       0.084339         2.2950 
*Only the first 10 virtual orbitals were printed.

                    ********************************
                    * MULLIKEN POPULATION ANALYSIS *
                    ********************************

-----------------------
MULLIKEN ATOMIC CHARGES
-----------------------
   0 C :    0.057176
   1 C :    0.061490
   2 C :   -0.510563
   3 C :   -0.003304
   4 C :    0.003813
   5 C :   -0.508357
   6 C :    0.394274
   7 C :   -1.561288
   8 C :   -0.617709
   9 C :    2.708841
  10 C :   -0.673480
  11 C :   -1.582923
  12 C :    0.376416
  13 C :    0.364873
  14 C :   -1.571066
  15 C :   -0.648070
  16 C :    2.716509
  17 C :   -0.638354
  18 C :   -1.556164
  19 C :    0.395217
  20 C :    0.906806
  21 N :   -0.493821
  22 C :    0.884382
  23 C :    0.871177
  24 N :   -0.494726
  25 C :    0.945612
  26 O :   -0.586741
  27 O :   -0.586732
  28 O :   -0.587187
  29 O :   -0.586607
  30 H :    0.401391
  31 H :    0.401452
  32 H :    0.206664
  33 H :    0.222851
  34 H :    0.222707
  35 H :    0.206637
  36 H :    0.206630
  37 H :    0.222676
  38 H :    0.222833
  39 H :    0.206667
Sum of atomic charges:   -0.0000000

--------------------------------
MULLIKEN REDUCED ORBITAL CHARGES
--------------------------------
  0 C s       :     2.862952  s :     2.862952
      pz      :     0.976386  p :     3.038185
      px      :     1.057769
      py      :     1.004030
      dz2     :     0.003094  d :     0.041688
      dxz     :     0.005959
      dyz     :     0.006645
      dx2y2   :     0.013487
      dxy     :     0.012502

  1 C s       :     2.861077  s :     2.861077
      pz      :     0.977479  p :     3.035746
      px      :     1.054575
      py      :     1.003691
      dz2     :     0.003092  d :     0.041688
      dxz     :     0.005958
      dyz     :     0.006645
      dx2y2   :     0.013496
      dxy     :     0.012497

  2 C s       :     3.126738  s :     3.126738
      pz      :     0.952058  p :     3.343890
      px      :     0.999133
      py      :     1.392700
      dz2     :     0.003183  d :     0.039936
      dxz     :     0.005366
      dyz     :     0.005991
      dx2y2   :     0.012897
      dxy     :     0.012498

  3 C s       :     2.876238  s :     2.876238
      pz      :     0.976430  p :     3.085379
      px      :     1.084270
      py      :     1.024680
      dz2     :     0.003093  d :     0.041687
      dxz     :     0.005958
      dyz     :     0.006646
      dx2y2   :     0.013488
      dxy     :     0.012502

  4 C s       :     2.873932  s :     2.873932
      pz      :     0.977371  p :     3.080568
      px      :     1.080485
      py      :     1.022712
      dz2     :     0.003092  d :     0.041687
      dxz     :     0.005958
      dyz     :     0.006644
      dx2y2   :     0.013496
      dxy     :     0.012497

  5 C s       :     3.128053  s :     3.128053
      pz      :     0.952150  p :     3.340368
      px      :     0.995669
      py      :     1.392550
      dz2     :     0.003184  d :     0.039936
      dxz     :     0.005366
      dyz     :     0.005991
      dx2y2   :     0.012897
      dxy     :     0.012498

  6 C s       :     2.661765  s :     2.661765
      pz      :     0.954647  p :     2.909652
      px      :     0.976489
      py      :     0.978516
      dz2     :     0.002843  d :     0.034308
      dxz     :     0.004990
      dyz     :     0.003228
      dx2y2   :     0.010926
      dxy     :     0.012321

  7 C s       :     4.381037  s :     4.381037
      pz      :     0.901121  p :     3.144059
      px      :     1.029538
      py      :     1.213400
      dz2     :     0.002832  d :     0.036192
      dxz     :     0.006091
      dyz     :     0.003940
      dx2y2   :     0.010436
      dxy     :     0.012893

  8 C s       :     3.121716  s :     3.121716
      pz      :     1.038168  p :     3.457605
      px      :     0.755610
      py      :     1.663827
      dz2     :     0.003241  d :     0.038388
      dxz     :     0.003286
      dyz     :     0.006658
      dx2y2   :     0.014505
      dxy     :     0.010699

  9 C s       :     0.176214  s :     0.176214
      pz      :     1.005400  p :     3.072839
      px      :     0.508580
      py      :     1.558859
      dz2     :     0.003228  d :     0.042107
      dxz     :     0.006285
      dyz     :     0.007304
      dx2y2   :     0.012415
      dxy     :     0.012874

 10 C s       :     3.083103  s :     3.083103
      pz      :     1.038126  p :     3.551989
      px      :     0.853664
      py      :     1.660199
      dz2     :     0.003241  d :     0.038388
      dxz     :     0.003286
      dyz     :     0.006658
      dx2y2   :     0.014510
      dxy     :     0.010694

 11 C s       :     4.420061  s :     4.420061
      pz      :     0.900915  p :     3.126672
      px      :     1.012798
      py      :     1.212959
      dz2     :     0.002832  d :     0.036191
      dxz     :     0.006098
      dyz     :     0.003934
      dx2y2   :     0.010438
      dxy     :     0.012889

 12 C s       :     2.693348  s :     2.693348
      pz      :     0.955019  p :     2.895929
      px      :     0.954579
      py      :     0.986331
      dz2     :     0.002843  d :     0.034307
      dxz     :     0.004986
      dyz     :     0.003233
      dx2y2   :     0.010919
      dxy     :     0.012326

 13 C s       :     2.700558  s :     2.700558
      pz      :     0.953852  p :     2.900261
      px      :     0.959630
      py      :     0.986780
      dz2     :     0.002844  d :     0.034308
      dxz     :     0.004990
      dyz     :     0.003228
      dx2y2   :     0.010926
      dxy     :     0.012320

 14 C s       :     4.392203  s :     4.392203
      pz      :     0.901545  p :     3.142672
      px      :     1.025589
      py      :     1.215538
      dz2     :     0.002832  d :     0.036191
      dxz     :     0.006091
      dyz     :     0.003941
      dx2y2   :     0.010435
      dxy     :     0.012892

 15 C s       :     3.089769  s :     3.089769
      pz      :     1.038183  p :     3.519913
      px      :     0.815218
      py      :     1.666513
      dz2     :     0.003241  d :     0.038388
      dxz     :     0.003286
      dyz     :     0.006658
      dx2y2   :     0.014505
      dxy     :     0.010699

 16 C s       :     0.182662  s :     0.182662
      pz      :     1.005466  p :     3.058723
      px      :     0.503951
      py      :     1.549306
      dz2     :     0.003228  d :     0.042106
      dxz     :     0.006286
      dyz     :     0.007303
      dx2y2   :     0.012415
      dxy     :     0.012874

 17 C s       :     3.140365  s :     3.140365
      pz      :     1.038262  p :     3.459601
      px      :     0.760844
      py      :     1.660495
      dz2     :     0.003242  d :     0.038389
      dxz     :     0.003286
      dyz     :     0.006657
      dx2y2   :     0.014509
      dxy     :     0.010693

 18 C s       :     4.378832  s :     4.378832
      pz      :     0.900564  p :     3.141139
      px      :     1.025985
      py      :     1.214590
      dz2     :     0.002833  d :     0.036192
      dxz     :     0.006099
      dyz     :     0.003934
      dx2y2   :     0.010438
      dxy     :     0.012889

 19 C s       :     2.661852  s :     2.661852
      pz      :     0.955738  p :     2.908622
      px      :     0.975992
      py      :     0.976893
      dz2     :     0.002843  d :     0.034308
      dxz     :     0.004987
      dyz     :     0.003234
      dx2y2   :     0.010918
      dxy     :     0.012326

 20 C s       :     2.733437  s :     2.733437
      pz      :     0.751642  p :     2.245106
      px      :     0.883255
      py      :     0.610208
      dz2     :     0.005800  d :     0.114651
      dxz     :     0.010865
      dyz     :     0.023635
      dx2y2   :     0.043532
      dxy     :     0.030819

 21 N s       :     3.495637  s :     3.495637
      pz      :     1.604912  p :     3.972016
      px      :     1.201158
      py      :     1.165947
      dz2     :     0.003160  d :     0.026167
      dxz     :     0.001368
      dyz     :     0.004202
      dx2y2   :     0.009938
      dxy     :     0.007501

 22 C s       :     2.761995  s :     2.761995
      pz      :     0.751615  p :     2.238974
      px      :     0.878452
      py      :     0.608907
      dz2     :     0.005800  d :     0.114648
      dxz     :     0.010850
      dyz     :     0.023650
      dx2y2   :     0.043458
      dxy     :     0.030890

 23 C s       :     2.781186  s :     2.781186
      pz      :     0.751621  p :     2.232988
      px      :     0.874541
      py      :     0.606826
      dz2     :     0.005798  d :     0.114649
      dxz     :     0.010864
      dyz     :     0.023636
      dx2y2   :     0.043528
      dxy     :     0.030823

 24 N s       :     3.495923  s :     3.495923
      pz      :     1.604935  p :     3.972635
      px      :     1.201343
      py      :     1.166357
      dz2     :     0.003160  d :     0.026168
      dxz     :     0.001367
      dyz     :     0.004201
      dx2y2   :     0.009938
      dxy     :     0.007501

 25 C s       :     2.680302  s :     2.680302
      pz      :     0.751627  p :     2.259438
      px      :     0.895892
      py      :     0.611920
      dz2     :     0.005798  d :     0.114648
      dxz     :     0.010849
      dyz     :     0.023651
      dx2y2   :     0.043462
      dxy     :     0.030888

 26 O s       :     3.961014  s :     3.961014
      pz      :     1.486245  p :     4.600304
      px      :     1.662858
      py      :     1.451200
      dz2     :     0.002129  d :     0.025423
      dxz     :     0.003031
      dyz     :     0.007097
      dx2y2   :     0.006315
      dxy     :     0.006851

 27 O s       :     3.961701  s :     3.961701
      pz      :     1.486230  p :     4.599610
      px      :     1.663009
      py      :     1.450372
      dz2     :     0.002128  d :     0.025420
      dxz     :     0.003017
      dyz     :     0.007111
      dx2y2   :     0.006317
      dxy     :     0.006848

 28 O s       :     3.962252  s :     3.962252
      pz      :     1.486228  p :     4.599513
      px      :     1.661960
      py      :     1.451326
      dz2     :     0.002129  d :     0.025421
      dxz     :     0.003032
      dyz     :     0.007096
      dx2y2   :     0.006315
      dxy     :     0.006850

 29 O s       :     3.960903  s :     3.960903
      pz      :     1.486233  p :     4.600281
      px      :     1.663598
      py      :     1.450449
      dz2     :     0.002129  d :     0.025423
      dxz     :     0.003018
      dyz     :     0.007110
      dx2y2   :     0.006317
      dxy     :     0.006849

 30 H s       :     0.574600  s :     0.574600
      pz      :     0.006343  p :     0.024009
      px      :     0.014833
      py      :     0.002833

 31 H s       :     0.574540  s :     0.574540
      pz      :     0.006344  p :     0.024008
      px      :     0.014832
      py      :     0.002832

 32 H s       :     0.780598  s :     0.780598
      pz      :     0.002505  p :     0.012738
      px      :     0.003253
      py      :     0.006980

 33 H s       :     0.764547  s :     0.764547
      pz      :     0.002214  p :     0.012603
      px      :     0.003847
      py      :     0.006542

 34 H s       :     0.764691  s :     0.764691
      pz      :     0.002214  p :     0.012602
      px      :     0.003837
      py      :     0.006551

 35 H s       :     0.780625  s :     0.780625
      pz      :     0.002506  p :     0.012738
      px      :     0.003261
      py      :     0.006972

 36 H s       :     0.780632  s :     0.780632
      pz      :     0.002505  p :     0.012738
      px      :     0.003253
      py      :     0.006980

 37 H s       :     0.764723  s :     0.764723
      pz      :     0.002214  p :     0.012602
      px      :     0.003846
      py      :     0.006541

 38 H s       :     0.764565  s :     0.764565
      pz      :     0.002214  p :     0.012603
      px      :     0.003838
      py      :     0.006550

 39 H s       :     0.780595  s :     0.780595
      pz      :     0.002506  p :     0.012738
      px      :     0.003261
      py      :     0.006971



                     *******************************
                     * LOEWDIN POPULATION ANALYSIS *
                     *******************************

----------------------
LOEWDIN ATOMIC CHARGES
----------------------
   0 C :   -0.018111
   1 C :   -0.018115
   2 C :   -0.029905
   3 C :   -0.018119
   4 C :   -0.018120
   5 C :   -0.029903
   6 C :   -0.091221
   7 C :   -0.038292
   8 C :   -0.079894
   9 C :   -0.007857
  10 C :   -0.079918
  11 C :   -0.038308
  12 C :   -0.091223
  13 C :   -0.091224
  14 C :   -0.038305
  15 C :   -0.079908
  16 C :   -0.007857
  17 C :   -0.079904
  18 C :   -0.038290
  19 C :   -0.091225
  20 C :    0.218325
  21 N :   -0.165698
  22 C :    0.218321
  23 C :    0.218318
  24 N :   -0.165689
  25 C :    0.218337
  26 O :   -0.398647
  27 O :   -0.398640
  28 O :   -0.398640
  29 O :   -0.398645
  30 H :    0.271109
  31 H :    0.271109
  32 H :    0.182107
  33 H :    0.191933
  34 H :    0.191935
  35 H :    0.182095
  36 H :    0.182095
  37 H :    0.191937
  38 H :    0.191931
  39 H :    0.182107

-------------------------------
LOEWDIN REDUCED ORBITAL CHARGES
-------------------------------
  0 C s       :     2.819700  s :     2.819700
      pz      :     0.934219  p :     3.094914
      px      :     1.063504
      py      :     1.097191
      dz2     :     0.007102  d :     0.103497
      dxz     :     0.011263
      dyz     :     0.013020
      dx2y2   :     0.037137
      dxy     :     0.034975

  1 C s       :     2.819700  s :     2.819700
      pz      :     0.934197  p :     3.094917
      px      :     1.063533
      py      :     1.097187
      dz2     :     0.007098  d :     0.103497
      dxz     :     0.011259
      dyz     :     0.013016
      dx2y2   :     0.037154
      dxy     :     0.034969

  2 C s       :     2.805187  s :     2.805187
      pz      :     0.986840  p :     3.123551
      px      :     1.062736
      py      :     1.073974
      dz2     :     0.007255  d :     0.101167
      dxz     :     0.010485
      dyz     :     0.011602
      dx2y2   :     0.036239
      dxy     :     0.035586

  3 C s       :     2.819701  s :     2.819701
      pz      :     0.934210  p :     3.094924
      px      :     1.063511
      py      :     1.097203
      dz2     :     0.007100  d :     0.103495
      dxz     :     0.011259
      dyz     :     0.013020
      dx2y2   :     0.037139
      dxy     :     0.034975

  4 C s       :     2.819700  s :     2.819700
      pz      :     0.934201  p :     3.094925
      px      :     1.063541
      py      :     1.097183
      dz2     :     0.007098  d :     0.103495
      dxz     :     0.011258
      dyz     :     0.013017
      dx2y2   :     0.037154
      dxy     :     0.034967

  5 C s       :     2.805188  s :     2.805188
      pz      :     0.986842  p :     3.123548
      px      :     1.062735
      py      :     1.073971
      dz2     :     0.007256  d :     0.101167
      dxz     :     0.010486
      dyz     :     0.011602
      dx2y2   :     0.036238
      dxy     :     0.035586

  6 C s       :     2.859925  s :     2.859925
      pz      :     0.961405  p :     3.148481
      px      :     1.096925
      py      :     1.090151
      dz2     :     0.005960  d :     0.082816
      dxz     :     0.009837
      dyz     :     0.005720
      dx2y2   :     0.029255
      dxy     :     0.032045

  7 C s       :     2.864675  s :     2.864675
      pz      :     0.893378  p :     3.086938
      px      :     1.095891
      py      :     1.097669
      dz2     :     0.005902  d :     0.086680
      dxz     :     0.012159
      dyz     :     0.007304
      dx2y2   :     0.028266
      dxy     :     0.033049

  8 C s       :     2.819874  s :     2.819874
      pz      :     1.023908  p :     3.160665
      px      :     1.038785
      py      :     1.097971
      dz2     :     0.007996  d :     0.099355
      dxz     :     0.006105
      dyz     :     0.013138
      dx2y2   :     0.040663
      dxy     :     0.031453

  9 C s       :     2.803118  s :     2.803118
      pz      :     0.948944  p :     3.097827
      px      :     1.070230
      py      :     1.078653
      dz2     :     0.007389  d :     0.106912
      dxz     :     0.012435
      dyz     :     0.014676
      dx2y2   :     0.035479
      dxy     :     0.036932

 10 C s       :     2.819859  s :     2.819859
      pz      :     1.023913  p :     3.160703
      px      :     1.038865
      py      :     1.097925
      dz2     :     0.007997  d :     0.099355
      dxz     :     0.006105
      dyz     :     0.013139
      dx2y2   :     0.040670
      dxy     :     0.031445

 11 C s       :     2.864683  s :     2.864683
      pz      :     0.893392  p :     3.086944
      px      :     1.095849
      py      :     1.097703
      dz2     :     0.005902  d :     0.086681
      dxz     :     0.012176
      dyz     :     0.007289
      dx2y2   :     0.028269
      dxy     :     0.033044

 12 C s       :     2.859926  s :     2.859926
      pz      :     0.961432  p :     3.148481
      px      :     1.096970
      py      :     1.090080
      dz2     :     0.005960  d :     0.082815
      dxz     :     0.009827
      dyz     :     0.005732
      dx2y2   :     0.029242
      dxy     :     0.032055

 13 C s       :     2.859928  s :     2.859928
      pz      :     0.961409  p :     3.148480
      px      :     1.096926
      py      :     1.090146
      dz2     :     0.005960  d :     0.082815
      dxz     :     0.009837
      dyz     :     0.005720
      dx2y2   :     0.029254
      dxy     :     0.032044

 14 C s       :     2.864678  s :     2.864678
      pz      :     0.893390  p :     3.086946
      px      :     1.095889
      py      :     1.097667
      dz2     :     0.005902  d :     0.086681
      dxz     :     0.012160
      dyz     :     0.007305
      dx2y2   :     0.028266
      dxy     :     0.033049

 15 C s       :     2.819859  s :     2.819859
      pz      :     1.023915  p :     3.160694
      px      :     1.038808
      py      :     1.097971
      dz2     :     0.007997  d :     0.099355
      dxz     :     0.006106
      dyz     :     0.013139
      dx2y2   :     0.040662
      dxy     :     0.031452

 16 C s       :     2.803120  s :     2.803120
      pz      :     0.948950  p :     3.097824
      px      :     1.070230
      py      :     1.078644
      dz2     :     0.007390  d :     0.106912
      dxz     :     0.012437
      dyz     :     0.014676
      dx2y2   :     0.035478
      dxy     :     0.036931

 17 C s       :     2.819879  s :     2.819879
      pz      :     1.023919  p :     3.160670
      px      :     1.038833
      py      :     1.097918
      dz2     :     0.007998  d :     0.099355
      dxz     :     0.006107
      dyz     :     0.013140
      dx2y2   :     0.040668
      dxy     :     0.031443

 18 C s       :     2.864673  s :     2.864673
      pz      :     0.893404  p :     3.086937
      px      :     1.095853
      py      :     1.097680
      dz2     :     0.005903  d :     0.086680
      dxz     :     0.012178
      dyz     :     0.007290
      dx2y2   :     0.028267
      dxy     :     0.033042

 19 C s       :     2.859925  s :     2.859925
      pz      :     0.961448  p :     3.148484
      px      :     1.096971
      py      :     1.090065
      dz2     :     0.005960  d :     0.082816
      dxz     :     0.009830
      dyz     :     0.005733
      dx2y2   :     0.029240
      dxy     :     0.032052

 20 C s       :     2.772645  s :     2.772645
      pz      :     0.735350  p :     2.745733
      px      :     1.036329
      py      :     0.974054
      dz2     :     0.015629  d :     0.263297
      dxz     :     0.020187
      dyz     :     0.046209
      dx2y2   :     0.105181
      dxy     :     0.076090

 21 N s       :     3.086343  s :     3.086343
      pz      :     1.560529  p :     4.009365
      px      :     1.239419
      py      :     1.209417
      dz2     :     0.007375  d :     0.069990
      dxz     :     0.002176
      dyz     :     0.008717
      dx2y2   :     0.027687
      dxy     :     0.024035

 22 C s       :     2.772659  s :     2.772659
      pz      :     0.735347  p :     2.745720
      px      :     1.036237
      py      :     0.974136
      dz2     :     0.015629  d :     0.263301
      dxz     :     0.020158
      dyz     :     0.046239
      dx2y2   :     0.105023
      dxy     :     0.076252

 23 C s       :     2.772666  s :     2.772666
      pz      :     0.735333  p :     2.745716
      px      :     1.036311
      py      :     0.974072
      dz2     :     0.015625  d :     0.263299
      dxz     :     0.020183
      dyz     :     0.046210
      dx2y2   :     0.105187
      dxy     :     0.076095

 24 N s       :     3.086340  s :     3.086340
      pz      :     1.560548  p :     4.009360
      px      :     1.239417
      py      :     1.209395
[...]
  0-1.0A  ->  2-3.0A    1.617036   13042.3   766.7    0.00000   0.00000   0.00000   0.00000
  0-1.0A  ->  3-3.0A    1.617036   13042.3   766.7    0.00000   0.00000   0.00000   0.00000
  0-1.0A  ->  4-1.0A    2.763483   22289.0   448.7   -0.07154   0.00003   0.00000   0.00003
  0-1.0A  ->  5-3.0A    2.949170   23786.7   420.4    0.00000   0.00000   0.00000   0.00000
  0-1.0A  ->  6-3.0A    2.949170   23786.7   420.4   -0.00000   0.00000   0.00000   0.00003
  0-1.0A  ->  7-3.0A    2.949171   23786.7   420.4   -0.00000   0.00000   0.00055   0.00000
  0-1.0A  ->  8-3.0A    3.078465   24829.5   402.7   -0.00000   0.00000   0.00000   0.00000
  0-1.0A  ->  9-3.0A    3.078465   24829.5   402.7    0.00000   0.00007   0.00000   0.00002
  0-1.0A  -> 10-3.0A    3.078465   24829.5   402.7    0.00000   0.00000   0.00019   0.00000
  0-1.0A  -> 11-3.0A    3.293627   26564.9   376.4   -0.00000   0.00008   0.00000   0.00003
  0-1.0A  -> 12-3.0A    3.293627   26564.9   376.4   -0.00000   0.00000   0.00000   0.00000
  0-1.0A  -> 13-3.0A    3.293627   26564.9   376.4    0.00000   0.00000   0.00021   0.00000
  0-1.0A  -> 14-3.0A    3.387833   27324.7   366.0   -0.00000   0.00000   0.00000   0.00000
  0-1.0A  -> 15-3.0A    3.387833   27324.7   366.0   -0.00000   0.00000   0.00000   0.00000
  0-1.0A  -> 16-3.0A    3.387833   27324.7   366.0   -0.00000   0.00000   0.00000   0.00000
  0-1.0A  -> 17-1.0A    3.860608   31137.9   321.2   -0.34303   0.00017   0.00276   0.36421
  0-1.0A  -> 18-1.0A    4.044213   32618.8   306.6   -0.44162   0.00000   0.00065   0.00009
  0-1.0A  -> 19-1.0A    4.104774   33107.2   302.0    1.49505   0.00112   0.01213   1.59005
  0-1.0A  -> 20-3.0A    4.195697   33840.6   295.5   -0.00000   0.00000   0.00000   0.00003
  0-1.0A  -> 21-3.0A    4.195697   33840.6   295.5    0.00000   0.00000   0.00000   0.00001
  0-1.0A  -> 22-3.0A    4.195703   33840.6   295.5    0.00002   0.00000   0.00000   0.00018
  0-1.0A  -> 23-3.0A    4.244537   34234.5   292.1   -0.00000   0.00000   0.00000   0.00000
  0-1.0A  -> 24-3.0A    4.244537   34234.5   292.1    0.00000   0.00002   0.00000   0.00014
  0-1.0A  -> 25-3.0A    4.244537   34234.5   292.1   -0.00001   0.00000   0.00022   0.00002
  0-1.0A  -> 26-3.0A    4.338966   34996.1   285.7    0.00000   0.00000   0.00000   0.00000
  0-1.0A  -> 27-3.0A    4.338988   34996.3   285.7   -0.00000   0.00000   0.00000   0.00005
  0-1.0A  -> 28-3.0A    4.339000   34996.4   285.7    0.00000   0.00000   0.00002   0.00247
  0-1.0A  -> 29-3.0A    4.340848   35011.3   285.6   -0.00000   0.00000   0.00000   0.00003
  0-1.0A  -> 30-3.0A    4.340857   35011.4   285.6   -0.00000   0.00000   0.00002   0.00000
  0-1.0A  -> 31-3.0A    4.340857   35011.4   285.6   -0.00000   0.00000   0.00000   0.00004
  0-1.0A  -> 32-1.0A    4.396366   35459.1   282.0    0.00000   0.00008   0.00008   0.00006
  0-1.0A  -> 33-3.0A    4.413402   35596.5   280.9   -0.00011   0.00000   0.00226   0.00002
  0-1.0A  -> 34-3.0A    4.413418   35596.6   280.9    0.00000   0.00011   0.00000   0.00006
  0-1.0A  -> 35-3.0A    4.413418   35596.6   280.9    0.00000   0.00000   0.00001   0.00000
  0-1.0A  -> 36-1.0A    4.590749   37026.9   270.1    0.05810   0.00052   0.00298   0.41722
  0-1.0A  -> 37-1.0A    4.633675   37373.1   267.6    0.02140   0.00043   0.54815   0.00447
  0-1.0A  -> 38-1.0A    4.635715   37389.6   267.5   -0.00761   0.00001   0.00122   0.00024
  0-1.0A  -> 39-1.0A    4.802421   38734.1   258.2   -0.00006   0.00002   0.00135   0.00002
  0-1.0A  -> 40-1.0A    4.941376   39854.9   250.9   -1.03082   0.00276   0.00401   0.52931

----------------------------------------------------------------------------------------------
      SOC CORRECTED CD SPECTRUM VIA TRANSITION VELOCITY DIPOLE MOMENTS    
----------------------------------------------------------------------------------------------
      Transition         Energy     Energy  Wavelength    R       |MX|      |MY|      |MZ|  
                          (eV)      (cm-1)    (nm)    (1e40*cgs)  (au)      (au)      (au)  
----------------------------------------------------------------------------------------------
  0-1.0A  ->  1-3.0A    1.617036   13042.3   766.7   -0.00000   0.00000   0.00000   0.00000
  0-1.0A  ->  2-3.0A    1.617036   13042.3   766.7   -0.00000   0.00000   0.00000   0.00000
  0-1.0A  ->  3-3.0A    1.617036   13042.3   766.7    0.00000   0.00000   0.00000   0.00000
  0-1.0A  ->  4-1.0A    2.763483   22289.0   448.7   -0.03108   0.00003   0.00000   0.00003
  0-1.0A  ->  5-3.0A    2.949170   23786.7   420.4   -0.00000   0.00000   0.00000   0.00000
  0-1.0A  ->  6-3.0A    2.949170   23786.7   420.4    0.00000   0.00000   0.00000   0.00003
  0-1.0A  ->  7-3.0A    2.949171   23786.7   420.4    0.00000   0.00000   0.00055   0.00000
  0-1.0A  ->  8-3.0A    3.078465   24829.5   402.7   -0.00000   0.00000   0.00000   0.00000
  0-1.0A  ->  9-3.0A    3.078465   24829.5   402.7    0.00000   0.00007   0.00000   0.00002
  0-1.0A  -> 10-3.0A    3.078465   24829.5   402.7    0.00000   0.00000   0.00019   0.00000
  0-1.0A  -> 11-3.0A    3.293627   26564.9   376.4   -0.00000   0.00008   0.00000   0.00003
  0-1.0A  -> 12-3.0A    3.293627   26564.9   376.4   -0.00000   0.00000   0.00000   0.00000
  0-1.0A  -> 13-3.0A    3.293627   26564.9   376.4    0.00000   0.00000   0.00021   0.00000
  0-1.0A  -> 14-3.0A    3.387833   27324.7   366.0   -0.00000   0.00000   0.00000   0.00000
  0-1.0A  -> 15-3.0A    3.387833   27324.7   366.0   -0.00000   0.00000   0.00000   0.00000
  0-1.0A  -> 16-3.0A    3.387833   27324.7   366.0    0.00000   0.00000   0.00000   0.00000
  0-1.0A  -> 17-1.0A    3.860608   31137.9   321.2    0.07907   0.00017   0.00276   0.36421
  0-1.0A  -> 18-1.0A    4.044213   32618.8   306.6   -0.00446   0.00000   0.00065   0.00009
  0-1.0A  -> 19-1.0A    4.104774   33107.2   302.0    0.26996   0.00112   0.01213   1.59005
  0-1.0A  -> 20-3.0A    4.195697   33840.6   295.5    0.00000   0.00000   0.00000   0.00003
  0-1.0A  -> 21-3.0A    4.195697   33840.6   295.5   -0.00000   0.00000   0.00000   0.00001
  0-1.0A  -> 22-3.0A    4.195703   33840.6   295.5   -0.00004   0.00000   0.00000   0.00018
  0-1.0A  -> 23-3.0A    4.244537   34234.5   292.1    0.00000   0.00000   0.00000   0.00000
  0-1.0A  -> 24-3.0A    4.244537   34234.5   292.1   -0.00000   0.00002   0.00000   0.00014
  0-1.0A  -> 25-3.0A    4.244537   34234.5   292.1   -0.00000   0.00000   0.00022   0.00002
  0-1.0A  -> 26-3.0A    4.338966   34996.1   285.7   -0.00000   0.00000   0.00000   0.00000
  0-1.0A  -> 27-3.0A    4.338988   34996.3   285.7    0.00000   0.00000   0.00000   0.00005
  0-1.0A  -> 28-3.0A    4.339000   34996.4   285.7    0.00000   0.00000   0.00002   0.00247
  0-1.0A  -> 29-3.0A    4.340848   35011.3   285.6   -0.00000   0.00000   0.00000   0.00003
  0-1.0A  -> 30-3.0A    4.340857   35011.4   285.6   -0.00000   0.00000   0.00002   0.00000
  0-1.0A  -> 31-3.0A    4.340857   35011.4   285.6    0.00000   0.00000   0.00000   0.00004
  0-1.0A  -> 32-1.0A    4.396366   35459.1   282.0   -0.00000   0.00008   0.00008   0.00006
  0-1.0A  -> 33-3.0A    4.413402   35596.5   280.9   -0.00000   0.00000   0.00226   0.00002
  0-1.0A  -> 34-3.0A    4.413418   35596.6   280.9   -0.00000   0.00011   0.00000   0.00006
  0-1.0A  -> 35-3.0A    4.413418   35596.6   280.9    0.00000   0.00000   0.00001   0.00000
  0-1.0A  -> 36-1.0A    4.590749   37026.9   270.1    0.16458   0.00052   0.00298   0.41722
  0-1.0A  -> 37-1.0A    4.633675   37373.1   267.6   -0.04306   0.00043   0.54815   0.00447
  0-1.0A  -> 38-1.0A    4.635715   37389.6   267.5    0.01579   0.00001   0.00122   0.00024
  0-1.0A  -> 39-1.0A    4.802421   38734.1   258.2   -0.00002   0.00002   0.00135   0.00002
  0-1.0A  -> 40-1.0A    4.941376   39854.9   250.9   -0.08051   0.00276   0.00401   0.52931

Total run time:      353.556 sec

           *** ORCA-CIS/TD-DFT FINISHED WITHOUT ERROR ***

---------------------------
SOC CIS/TD-DFT TOTAL ENERGY
---------------------------

    E(SCF)        =  -1330.818005155 Eh
    E(SOC CIS)    =      0.059424471 Eh (SOC Root  1)
    ----------------------------- ---------
    E(tot)        =  -1330.758580684 Eh


Maximum memory used throughout the entire CIS-calculation: 397.3 MB
=> NOW LEAVING ORCA_CIS


-------------------------------------------------------------------------------
                          DFT DISPERSION CORRECTION                            
                                                                               
                              DFTD3 V3.1  Rev 1                                
                              USING zero damping                               
-------------------------------------------------------------------------------
The omegaB97X-D3 functional is recognized. Fit by Chai et al.
Active option DFTDOPT                   ...         3   

molecular C6(AA) [au] = 25320.985895 


            DFT-D V3
 parameters
 s6 scaling factor         :     1.0000 
 rs6 scaling factor        :     1.2810 
 s8 scaling factor         :     1.0000 
 rs8 scaling factor        :     1.0940 
 Damping factor alpha6     :    14.0000 
 Damping factor alpha8     :    16.0000 
 ad hoc parameters k1-k3   :    16.0000     1.3333    -4.0000 

 Edisp/kcal,au: -12.716902365691  -0.020265671731 
 E6   /kcal   :  -5.988342036 
 E8   /kcal   :  -6.728560330 
 % E8         :  52.910371851 

-------------------------   ----------------
Dispersion correction           -0.020265672
-------------------------   ----------------


-------------------------   --------------------
FINAL SINGLE POINT ENERGY     -1330.778846355275
-------------------------   --------------------



           ************************************************************
           *        Program running with 4 parallel MPI-processes     *
           *              working on a common directory               *
           ************************************************************

------------------------------------------------------------------------------
                              ORCA PROPERTY CALCULATIONS
------------------------------------------------------------------------------

GBWName                                 ... pdi_soc.gbw
Number of atoms                         ...     40
Number of basis functions               ...    590
Max core memory                         ...   2500 MB

Electric properties:
Dipole moment                           ... YES
Quadrupole moment                       ...  NO
Static polarizability (Dipole/Dipole)   ...  NO
Static polarizability (Dipole/Quad.)    ...  NO
Static polarizability (Quad./Quad.)     ...  NO
Static polarizability (Velocity)        ...  NO
Static hyperpolarizability              ...  NO

Atomic electric properties:
Dipole moment                           ...  NO
Quadrupole moment                       ...  NO
Static polarizability                   ...  NO

Choice of electric origin               ... Center of mass
Position of electric origin             ...    -0.004689    -0.001575    -0.010832

General magnetic properties:
Magnetizability                         ...  NO

EPR properties:
g-Tensor (aka g-matrix)                 ...  NO
Zero-Field splitting spin-orbit         ...  NO
Zero-field splitting spin-spin          ...  NO
Hyperfine couplings                     ...  NO (   0 nuclei)
Quadrupole couplings                    ...  NO (   0 nuclei)
Contact density                         ...  NO (   0 nuclei)

NMR properties:
Chemical shifts                         ...  NO (   0 nuclei)
Spin-rotation constants                 ...  NO (   0 nuclei)
Spin-spin couplings                     ...  NO (   0 nuclei,    0 pairs)

Choice of magnetic origin               ... GIAO
Position of magnetic origin             ...     0.000000     0.000000     0.000000

Properties with geometric perturbations:
SCF Hessian                             ...  NO
IR spectrum                             ...  NO
VCD spectrum                            ...  NO
X-ray spectroscopy properties:
SCF XES/XAS/RIXS spectra                ...  NO

SCF SOC stabilization energy            ...  NO
Diagonal Born-Oppenheimer correction    ...  NO

-------------
DIPOLE MOMENT
-------------

Method             : SCF
Type of density    : Electron Density
Multiplicity       :   1
Irrep              :   0
Energy             : -1330.8180051549745713 Eh
Basis              : AO
                                X                 Y                 Z
Electronic contribution:      0.000150373       0.000170859       0.000012159
Nuclear contribution   :      0.000004311      -0.000133458       0.000016819
                        -----------------------------------------
Total Dipole Moment    :      0.000154683       0.000037400       0.000028978
                        -----------------------------------------
Magnitude (a.u.)       :      0.000161758
Magnitude (Debye)      :      0.000411155



--------------------
Rotational spectrum 
--------------------
 
Rotational constants in cm-1:             0.013964             0.002953             0.002437 
Rotational constants in MHz :           418.616829            88.522233            73.070675 

Dipole components along the rotational axes: 
x,y,z [a.u.] :     0.000155     0.000038     0.000029 
x,y,z [Debye]:     0.000393     0.000096     0.000073 

 

Dipole moment calculation done in   0.0 sec 

Maximum memory used throughout the entire PROP-calculation: 46.9 MB

--------------------------------
SUGGESTED CITATIONS FOR THIS RUN
--------------------------------

Below you find a list of papers that are relevant to this ORCA run
We neither can nor want to force you to cite these papers, but we appreciate if you do
You receive ORCA, which is the product of decades of hard work by many enthusiastic individuals, for free
The only thing we kindly ask in return is that you cite our papers,
We deeply appreciate it, if you show your appreciation for ORCA by not just citing the generic ORCA reference.

Please note that relegating all ORCA citations to the supporting information does *not* help us.
SI sections are not indexed - citations you put there will not count into any citation statistics
But we need these citations in order to attract the funding resources that allow us to do what we are doing

Therefore, if you are a happy ORCA user, please consider citing a few of the papers listed below in the main body of your paper

In addition to the list printed below, the program has created the file pdi_soc.bibtex that contains the list in bibtex format
You can import this file easily into all common literature databanks and citation aid programs

It goes without saying that in many instances, there are alternative algorithms to achieve similar
results as the ones you have gotten from ORCA. It is, of course, also the case that in some instances
ORCA just re-implements algorithms worked out by others. We are fully aware of that and we are also
fully appreciative of our colleagues work. Hence this citation list should not be read as indicating
that the listed papers, which are focused on our own work, are the only ones worth citing. It simply
meant to make it easier for users to cite ORCA specific papers. It is not a substitute for doing your
own literature research and citing the relevant literature in a scientifically appropriate manner.

List of essential papers. We consider these as the minimum necessary citations

  1. Neese, F.
     Software update: the ORCA program system, version 6.0
     WIRES Comput. Molec. Sci. 2025 15(1), e70019
     doi.org/10.1002/wcms.70019

List of papers to cite with high priority. The work reported in these papers was absolutely
necessary for this run to complete.
Our perspective: the developers of density functionals and basis sets usually get cited in chemistry papers
Good! But without the algorithms to do something with them, the functionals or basis sets would not do anything.
Hence, in our opinion, the algorithm design and method developments papers are equally worthy of getting cited

  1. Neese, F.; Olbrich, G.
     Efficient use of the resolution of the identity approximation in time-dependent density functional calculations with hybrid density functionals
     Chem. Phys. Lett. 2002 362 , 170-178
     doi.org/10.1016/s0009-2614(02)01053-9
  2. Neese, F.
     An improvement of the resolution of the identity approximation for the formation of the Coulomb matrix
     J. Comp. Chem. 2003 24(14), 1740-1747
     doi.org/10.1002/jcc.10318
  3. Neese, F.; Wennmohs, F.; Hansen, A.; Becker, U.
     Efficient, approximate and parallel Hartree-Fock and hybrid DFT calculations. A 'chain-of-spheres' algorithm for the Hartree-Fock exchange
     Chem. Phys. 2009 356(1-3), 98-109
     doi.org/10.1016/j.chemphys.2008.10.036
  4. Grimme, S.; Antony, J.; Ehrlich, S.; Krieg, H.
     A consistent and accurate ab initio parametrization of density functional dispersion correction (DFT-D) for the 94 elements H-Pu
     J. Chem. Phys. 2010 132 , 154104
     doi.org/10.1063/1.3382344
  5. Garcia-Rates, M.; Neese, F.
     Effect of the Solute Cavity on the Solvation Energy and its Derivatives within the Framework of the Gaussian Charge Scheme
     J. Comput. Chem. 2020 41 , 922-939
     doi.org/10.1002/jcc.26139
  6. Helmich-Paris, B.; de Souza, B.; Neese, F.; Izsák, R.
     An improved chain of spheres for exchange algorithm
     J. Chem. Phys. 2021 155(10), 104109
     doi.org/10.1063/5.0058766
  7. Neese, F.
     The SHARK Integral Generation and Digestion System
     J. Comp. Chem. 2022 44(3), 381
     doi.org/10.1002/jcc.26942

List of suggested additional citations. These are papers that are important in the 'surrounding' of 
of this run, or papers that preceded the highly important papers. If you like your results we are grateful for a citation.

  1. Izsak, R.; Neese, F.
     An overlap fitted chain of spheres exchange method
     J. Chem. Phys. 2011 135 , 144105
     doi.org/10.1063/1.3646921
  2. Izsak, R.; Hansen, A.; Neese, F.
     The resolution of identity and chain of spheres approximations for the LPNO-CCSD singles Fock term
     Molec. Phys. 2012 110 , 2413-2417
     doi.org/10.1080/00268976.2012.687466
  3. Neese, F.
     The ORCA program system
     WIRES Comput. Molec. Sci. 2012 2(1), 73-78
     doi.org/10.1002/wcms.81
  4. Izsak, R.; Neese, F.; Klopper, W.
     Robust fitting techniques in the chain of spheres approximation to the Fock exchange: The role of the complementary space
     J. Chem. Phys. 2013 139 , 
     doi.org/10.1063/1.4819264
  5. Neese, F.
     Software update: the ORCA program system, version 4.0
     WIRES Comput. Molec. Sci. 2018 8(1), 1-6
     doi.org/10.1002/wcms.1327
  6. Neese, F.; Wennmohs, F.; Becker, U.; Riplinger, C.
     The ORCA quantum chemistry program package
     J. Chem. Phys. 2020 152(22), 224108
     doi.org/10.1063/5.0004608
  7. Neese, F.
     Software update: The ORCA program system—Version 5.0
     WIRES Comput. Molec. Sci. 2022 12(1), e1606
     doi.org/10.1002/wcms.1606

List of optional additional citations

  1. Neese, F.
     Approximate second-order SCF convergence for spin unrestricted wavefunctions
     Chem. Phys. Lett. 2000 325(1-3), 93-98
     doi.org/10.1016/s0009-2614(00)00662-x

Timings for individual modules:

Sum of individual times          ...      656.974 sec (=  10.950 min)
Startup calculation              ...        3.377 sec (=   0.056 min)   0.5 %
SCF iterations                   ...      290.505 sec (=   4.842 min)  44.2 %
Property integrals               ...        8.588 sec (=   0.143 min)   1.3 %
Property calculations            ...        0.505 sec (=   0.008 min)   0.1 %
CIS module                       ...      353.998 sec (=   5.900 min)  53.9 %
                             ****ORCA TERMINATED NORMALLY****
TOTAL RUN TIME: 0 days 0 hours 10 minutes 57 seconds 582 msec
