
                                 *****************
                                 * O   R   C   A *
                                 *****************

                                            #,                                       
                                            ###                                      
                                            ####                                     
                                            #####                                    
                                            ######                                   
                                           ########,                                 
                                     ,,################,,,,,                         
                               ,,#################################,,                 
                          ,,##########################################,,             
                       ,#########################################, ''#####,          
                    ,#############################################,,   '####,        
                  ,##################################################,,,,####,       
                ,###########''''           ''''###############################       
              ,#####''   ,,,,##########,,,,          '''####'''          '####       
            ,##' ,,,,###########################,,,                        '##       
           ' ,,###''''                  '''############,,,                           
         ,,##''                                '''############,,,,        ,,,,,,###''
      ,#''                                            '''#######################'''  
     '                                                          ''''####''''         
             ,#######,   #######,   ,#######,      ##                                
            ,#'     '#,  ##    ##  ,#'     '#,    #''#        ,####,    ,#,          
            ##       ##  ##   ,#'  ##            #'  '#       #'       ,# #          
            ##       ##  #######   ##           ,######,      #####,      #          
            '#,     ,#'  ##    ##  '#,     ,#' ,#      #,     #,   #      #          
             '#######'   ##     ##  '#######'  #'      '#     '####' #    #          



                #########################################################
                #                        -***-                          #
                #          Department of theory and spectroscopy        #
                #                                                       #
                #                      Frank Neese                      #
                #                                                       #
                #     Directorship, Architecture, Infrastructure        #
                #                    SHARK, DRIVERS                     #
                #        Core code/Algorithms in most modules           #
                #                                                       #
                #        Max Planck Institute fuer Kohlenforschung      #
                #                Kaiser Wilhelm Platz 1                 #
                #                 D-45470 Muelheim/Ruhr                 #
                #                      Germany                          #
                #                                                       #
                #                  All rights reserved                  #
                #                        -***-                          #
                #########################################################


                         Program Version 6.1.1  -  RELEASE   -
                                (GIT: $487d211cc3$)
                          ($2025-11-21 10:33:24 +0100$)


 With contributions from (in alphabetic order):
[Max-Planck-Institut fuer Kohlenforschung]                               
  Daniel Aravena         : Magnetic Suceptibility                        
  Michael Atanasov       : Ab Initio Ligand Field Theory (pilot matlab implementation)
  Alexander A. Auer      : GIAO ZORA, VPT2 properties, NMR spectrum      
  Ute Becker             : All parallelization in ORCA, NUMFREQ, NUMCALC 
  Giovanni Bistoni       : ED, misc. LED, open-shell LED, HFLD           
  Dmytro Bykov           : pre 5.0 version of the SCF Hessian            
  Marcos Casanova-Páez   : Triplet and SCS-CIS(D). UHF-(DLPNO)-IP/EA/STEOM-CCSD. UHF-CVS-IP/STEOM-CCSD   
  Vijay G. Chilkuri      : MRCI spin determinant printing, contributions to CSF-ICE 
  Pauline Colinet        : FMM embedding                                 
  Dipayan Datta          : RHF DLPNO-CCSD density                        
  Achintya Kumar Dutta   : EOM-CC, STEOM-CC                              
  Nicolas Foglia         : Exact transition moments, OPA infrastructure, MCD improvements    
  Dmitry Ganyushin       : Spin-Orbit,Spin-Spin,Magnetic field MRCI      
  Miquel Garcia-Rates    : C-PCM and meta-GGA Hessian, CCSD/C-PCM, Gaussian charge scheme 
  Tiago L. C. Gouveia    : GS-ROHF, GS-ROCIS                             
  Yang Guo               : DLPNO-NEVPT2, F12-NEVPT2, CIM, IAO-localization        
  Andreas Hansen         : Spin unrestricted coupled pair/coupled cluster methods 
  Ingolf Harden          : AUTO-CI MPn and infrastructure                
  Benjamin Helmich-Paris : MC-RPA, TRAH-(SCF,CASSCF), AVAS, COSX integrals, SCF dyn. polar., MC-PDFT, srDFT 
  Lee Huntington         : MR-EOM, pCC                                   
  Robert Izsak           : Overlap fitted RIJCOSX, COSX-SCS-MP3, EOM     
  Riya Kayal             : Wick's Theorem for AUTO-CI, AUTO-CI UHF-CCSDT 
  Emily Kempfer          : AUTO-CI RHF CISDT and CCSDT, approximate NEVPT4
  Christian Kollmar      : KDIIS, OOCD, Brueckner-CCSD(T), CCSD density, CASPT2, CASPT2-K, improved NEVPT2 
  Axel Koslowski         : Symmetry handling                             
  Simone Kossmann        : meta-GGA functionals, TD-DFT gradient, OOMP2, (MP2 Hessian; deprecated post 5.0) 
  Lucas Lang             : DCDCAS, Hyperfine gauge corrections, ICE-SOC+SSC
  Marvin Lechner         : AUTO-CI (C++ implementation), FIC-MRCC        
  Spencer Leger          : CASSCF response                               
  Dagmar Lenk            : GEPOL surface, SMD, ORCA-2-JSON               
  Dimitrios Liakos       : Extrapolation schemes; Compound Job, Property file
  Dimitrios Manganas     : Further ROCIS development; embedding schemes. LFT, Crystal Embedding 
  Dimitrios Pantazis     : SARC Basis sets                               
  Anastasios Papadopoulos: AUTO-CI, single reference methods and gradients 
  Taras Petrenko         : pre 6.0 DFT Hessian and TD-DFT gradient,  ECA, NRVS 
  Petra Pikulova         : Analytic Raman intensities                    
  Peter Pinski           : DLPNO-MP2, DLPNO-MP2 Gradient                 
  Shashank Vittal Rao    : ES-AILFT, MagRelax                            
  Christoph Reimann      : Effective Core Potentials                     
  Marius Retegan         : Local ZFS, SOC                                
  Christoph Riplinger    : Optimizer, TS searches, QM/MM, DLPNO-CCSD(T), (RO)-DLPNO pert. Triples 
  Michael Roemelt        : Original ROCIS implementation, recursive CI coupling coefficients
  Masaaki Saitow         : Open-shell DLPNO-CCSD energy and density      
  Barbara Sandhoefer     : DKH picture change effects                    
  Yorick L. A. Schmerwitz: GMF and freeze-and-release deltaSCF, NEB S-IDPP initial path                    
  Kantharuban Sivalingam : CASSCF convergence/infrastructure, NEVPT2, NEVPT3, NEVPT4(SD), FIC-MRCI and CEPA variants
  Bernardo de Souza      : ESD, SOC TD-DFT                               
  Georgi L. Stoychev     : AutoAux, RI-MP2 NMR, DLPNO-MP2 response, X2C  
  Van Anh Tran           : RI-MP2 g-tensors                              
  Willem Van den Heuvel  : Paramagnetic NMR                              
  Zikuan Wang            : NOTCH, Electric field optimization            
  Frank Wennmohs         : Technical directorship and infrastructure     
  Hang Xu                : AUTO-CI-Response properties                   
                                                                         
[FACCTs GmbH]                                                            
  Markus Bursch, Nicolas Foglia, Miquel Garcia-Rates, Ingolf Harden, Hagen Neugebauer, Anastasios Papadopoulos, 
  Christoph Riplinger, Bernardo de Souza, Georgi L. Stoychev                                                    
                                                                 
  APM, various basis sets, CI-OPT, improved COSX, DLPNO-Multilevel,           
  DOCKER, DRACO, updates on ESD, Fragmentator, GOAT, IRC, LR-CPCM, L-BFGS, MBIS, meta-GGA TD-DFT gradient, ML-optimized integration grids, 
  MM, NACMEs, nearIR, NEB, NEB-TS, NL-DFT gradient (VV10), 2- and 3-layer-ONIOM, interface openCOSMO-RS, QMMM,   
  Crystal-QMMM, RESP, rigid body optimization, SF, symmetry and pop. for TD-DFT, various functionals, SOLVATOR                                   
                                                                         
[Other institutions]                                                     
  V. Asgeirsson          : NEB                                           
  Christoph Bannwarth    : sTDA-DFT, sTD-DFT, PBEh-3c, B97-3c, D3        
  Giovanni Bistoni       : ETS/NOCV, ADLD/ADEX, COVALED                  
  Martin Brehm           : Molecular dynamics                            
  Ronald Cardenas        : ETS/NOCV                                      
  Martina Colucci        : COVALED                                       
  Sebastian Ehlert       : rSCAN, r2SCAN, r2SCAN-3c, D4, dhf basis sets  
  Marvin Friede          : D4 for Fr, Ra, Ac-Lr                          
  Lars Goerigk           : TD-DFT with DH, B97 family of functionals     
  Stefan Grimme          : VdW corrections, initial TS optimization, DFT functionals, gCP, sTDA/sTD-DF 
  Waldemar Hujo          : DFT-NL                                        
  H. Jonsson             : NEB                                           
  Holger Kruse           : gCP                                           
  Marcel Mueller         : wB97X-3c, vDZP basis set                      
  Hagen Neugebauer       : wr2SCAN, Native XTB                           
  Gianluca Regni         : ADLD/ADEX                                     
  Tobias Risthaus        : pre 6.0 range-separated hybrid DFT and stability analysis
  Lukas Wittmann         : regularized MP2, r2SCAN double-hybrids, wr2SCAN        
                                                                         
We gratefully acknowledge several colleagues who have allowed us to      
interface, adapt or use parts of their codes:                            
  Ed Valeev, F. Pavosevic, A. Kumar             : LibInt (2-el integral package), F12 methods 
  Garnet Chan, S. Sharma, J. Yang, R. Olivares  : DMRG                   
  Ulf Ekstrom                                   : XCFun DFT Library      
  Mihaly Kallay                                 : mrcc  (arbitrary order and MRCC methods)
  Frank Weinhold                                : gennbo (NPA and NBO analysis)           
  Simon Mueller                                 : openCOSMO-RS                            
  Christopher J. Cramer and Donald G. Truhlar   : smd solvation model                     
  S Lehtola, MJT Oliveira, MAL Marques          : LibXC Library                           
  Liviu Ungur et al                             : ANISO software                          


 Your calculation uses the libint2 library for the computation of 2-el integrals
 For citations please refer to: http://libint.valeyev.net

 Your ORCA version has been built with support for libXC version: 7.0.0
 For citations please refer to: https://libxc.gitlab.io

 This ORCA versions uses:
   CBLAS   interface :  Fast vector & matrix operations
   LAPACKE interface :  Fast linear algebra routines
   SCALAPACK package :  Parallel linear algebra routines
   Shared memory     :  Shared parallel matrices


  ***********************************
  * Starting time: Tue Jul 14 11:24:11 2026
  * Host name:     Angzes-MacBook-Pro.local
  * Process ID:    10864
  * Working dir.:  /Users/liangze/Desktop/Tsinghua 2026 Summer/pdi_h2o2_production/pdi-theory-demo/calculations/pdi_terminal_functionalized/electronic_structure_calculation
  ***********************************

NOTE: MaxCore=3000 MB was set to SCF,MP2,MDCI,CIPSI,MRCI,RASCI and CIS
      => If you want to overwrite this, your respective input block should be placed after the MaxCore statement


***************************************
The coordinates will be read from file: pdi_terminal_functionalized_opt.xyz
***************************************


Your calculation utilizes the atom-pairwise dispersion correction
based on EEQ partial charges (D4)


Warning: RI is on but no J-basis has been assigned. Assigning Def2/J (nothing to worry about!)
================================================================================

----- Orbital basis set information -----
Your calculation utilizes the basis: def2-TZVP
   F. Weigend and R. Ahlrichs, Phys. Chem. Chem. Phys. 7, 3297 (2005).

----- AuxJ basis set information -----
Your calculation utilizes the auxiliary basis: def2/J
   H-Rn: F. Weigend, Phys. Chem. Chem. Phys. 8, 1057 (2006).
   Fr-Lr: K. Eichkorn, F. Weigend, O. Treutler, R. Ahlrichs; Theor. Chem. Acc. 97, 119 (1997).

================================================================================
                                        WARNINGS
                       Please study these warnings very carefully!
================================================================================


================================================================================
                                       INPUT FILE
================================================================================
NAME = pdi_terminal_functionalized_sp.inp
|  1> ! wB97X-D4 def2-TZVP TightSCF RIJCOSX NoSym
|  2> 
|  3> %pal
|  4>   nprocs 8
|  5> end
|  6> 
|  7> %maxcore 3000
|  8> 
|  9> * xyzfile 0 1 pdi_terminal_functionalized_opt.xyz
| 10> 
| 11>                          ****END OF INPUT****
================================================================================

                       ****************************
                       * Single Point Calculation *
                       ****************************

---------------------------------
CARTESIAN COORDINATES (ANGSTROEM)
---------------------------------
  C     -0.740611    1.228664   -0.174338
  C      0.720267    1.235625   -0.197016
  C      1.419547   -0.005865   -0.189316
  C      0.731920   -1.253758   -0.199480
  C     -0.729115   -1.260678   -0.189914
  C     -1.428317   -0.019109   -0.190504
  C      1.461349    2.417454   -0.205404
  C      2.853414    2.413577   -0.213641
  C      3.550922    1.219905   -0.211504
  C      2.845193    0.000815   -0.206771
  C      3.563065   -1.211222   -0.206377
  C      2.876364   -2.411462   -0.202680
  C      1.484440   -2.428383   -0.198100
  C     -1.470357   -2.442415   -0.200020
  C     -2.862437   -2.438464   -0.195501
  C     -3.559829   -1.244785   -0.182994
  C     -2.853968   -0.025802   -0.173590
  C     -3.571704    1.186249   -0.160287
  C     -2.884886    2.386374   -0.149390
  C     -1.492977    2.403245   -0.157379
  C     -5.037874   -1.271261   -0.176462
  N     -5.702826   -0.043027   -0.162936
  C     -5.049327    1.200432   -0.152170
  C      5.028958    1.246456   -0.220424
  N      5.694032    0.018211   -0.221855
  C      5.040688   -1.225348   -0.213920
  O      5.645226    2.303068   -0.227063
  O      5.663158   -2.277699   -0.212807
  O     -5.654272   -2.327797   -0.183006
  O     -5.671677    2.252749   -0.137358
  C     -7.195398   -0.033012   -0.158232
  C      7.186597    0.008309   -0.228834
  C     -7.777902   -0.636167   -1.441149
  C     -7.770066   -0.658240    1.117657
  C     -7.171387   -0.078357    2.396731
  C     -7.183671   -0.037240   -2.713542
  C      7.759736    0.623336   -1.510355
  C      7.770492    0.621862    1.048500
  C      7.155210    0.037410   -2.783919
  C      7.182329    0.028844    2.326461
  H      0.959515    3.377475   -0.210185
  H      3.412752    3.343543   -0.220625
  H      3.443934   -3.336355   -0.202679
  H      0.992044   -3.393279   -0.197150
  H     -0.968710   -3.402505   -0.208295
  H     -3.421870   -3.368370   -0.202517
  H     -3.452360    3.311225   -0.135776
  H     -1.000392    3.367978   -0.145657
  H     -7.438534    1.033813   -0.148377
  H      7.429861   -1.058529   -0.230540
  H     -8.856813   -0.435115   -1.409449
  H     -7.654576   -1.723138   -1.435074
  H     -7.643512   -1.744586    1.093131
  H     -8.849734   -0.460090    1.094444
  H     -6.110434   -0.334290    2.493218
  H     -7.683462   -0.473676    3.279235
  H     -7.254314    1.014254    2.415789
  H     -7.259790    1.056064   -2.712278
  H     -7.704020   -0.413039   -3.599733
  H     -6.125050   -0.298067   -2.821522
  H      8.838657    0.420993   -1.488964
  H      7.637434    1.710293   -1.492771
  H      7.642569    1.708252    1.035480
  H      8.850171    0.425246    1.014982
  H      7.230899   -1.055883   -2.794412
  H      7.668732    0.421963   -3.670340
  H      6.095881    0.299675   -2.880960
  H      6.122059    0.283216    2.433940
  H      7.701249    0.415512    3.208797
  H      7.265898   -1.063852    2.333715

----------------------------
CARTESIAN COORDINATES (A.U.)
----------------------------
  NO LB      ZA    FRAG     MASS         X           Y           Z
   0 C     6.0000    0    12.011   -1.399553    2.321839   -0.329450
   1 C     6.0000    0    12.011    1.361107    2.334993   -0.372306
   2 C     6.0000    0    12.011    2.682554   -0.011083   -0.357755
   3 C     6.0000    0    12.011    1.383129   -2.369260   -0.376963
   4 C     6.0000    0    12.011   -1.377827   -2.382336   -0.358885
   5 C     6.0000    0    12.011   -2.699127   -0.036110   -0.360001
   6 C     6.0000    0    12.011    2.761550    4.568327   -0.388157
   7 C     6.0000    0    12.011    5.392172    4.561000   -0.403722
   8 C     6.0000    0    12.011    6.710271    2.305286   -0.399684
   9 C     6.0000    0    12.011    5.376636    0.001541   -0.390740
  10 C     6.0000    0    12.011    6.733218   -2.288878   -0.389997
  11 C     6.0000    0    12.011    5.435541   -4.557004   -0.383009
  12 C     6.0000    0    12.011    2.805185   -4.588978   -0.374354
  13 C     6.0000    0    12.011   -2.778573   -4.615496   -0.377983
  14 C     6.0000    0    12.011   -5.409222   -4.608030   -0.369444
  15 C     6.0000    0    12.011   -6.727103   -2.352303   -0.345808
  16 C     6.0000    0    12.011   -5.393219   -0.048759   -0.328037
  17 C     6.0000    0    12.011   -6.749542    2.241685   -0.302898
  18 C     6.0000    0    12.011   -5.451645    4.509593   -0.282307
  19 C     6.0000    0    12.011   -2.821318    4.541475   -0.297403
  20 C     6.0000    0    12.011   -9.520202   -2.402336   -0.333466
  21 N     7.0000    0    14.007  -10.776779   -0.081310   -0.307905
  22 C     6.0000    0    12.011   -9.541846    2.268487   -0.287559
  23 C     6.0000    0    12.011    9.503353    2.355461   -0.416542
  24 N     7.0000    0    14.007   10.760161    0.034414   -0.419245
  25 C     6.0000    0    12.011    9.525519   -2.315572   -0.404250
  26 O     8.0000    0    15.999   10.667932    4.352168   -0.429086
  27 O     8.0000    0    15.999   10.701817   -4.304227   -0.402147
  28 O     8.0000    0    15.999  -10.685027   -4.398899   -0.345831
  29 O     8.0000    0    15.999  -10.717916    4.257079   -0.259568
  30 C     6.0000    0    12.011  -13.597331   -0.062383   -0.299016
  31 C     6.0000    0    12.011   13.580701    0.015701   -0.432434
  32 C     6.0000    0    12.011  -14.698105   -1.202182   -2.723376
  33 C     6.0000    0    12.011  -14.683297   -1.243894    2.112066
  34 C     6.0000    0    12.011  -13.551958   -0.148073    4.529165
  35 C     6.0000    0    12.011  -13.575171   -0.070373   -5.127852
  36 C     6.0000    0    12.011   14.663776    1.177934   -2.854158
  37 C     6.0000    0    12.011   14.684101    1.175148    1.981377
  38 C     6.0000    0    12.011   13.521387    0.070695   -5.260845
  39 C     6.0000    0    12.011   13.572634    0.054507    4.396374
  40 H     1.0000    0     1.008    1.813221    6.382503   -0.397192
  41 H     1.0000    0     1.008    6.449167    6.318381   -0.416921
  42 H     1.0000    0     1.008    6.508092   -6.304798   -0.383008
  43 H     1.0000    0     1.008    1.874691   -6.412369   -0.372559
  44 H     1.0000    0     1.008   -1.830596   -6.429803   -0.393621
  45 H     1.0000    0     1.008   -6.466397   -6.365298   -0.382701
  46 H     1.0000    0     1.008   -6.524014    6.257309   -0.256579
  47 H     1.0000    0     1.008   -1.890466    6.364556   -0.275251
  48 H     1.0000    0     1.008  -14.056792    1.953623   -0.280391
  49 H     1.0000    0     1.008   14.040403   -2.000331   -0.435658
  50 H     1.0000    0     1.008  -16.736951   -0.822248   -2.663473
  51 H     1.0000    0     1.008  -14.465052   -3.256259   -2.711897
  52 H     1.0000    0     1.008  -14.444145   -3.296790    2.065718
  53 H     1.0000    0     1.008  -16.723573   -0.869445    2.068200
  54 H     1.0000    0     1.008  -11.547047   -0.631716    4.711499
  55 H     1.0000    0     1.008  -14.519639   -0.895118    6.196856
  56 H     1.0000    0     1.008  -13.708667    1.916663    4.565180
  57 H     1.0000    0     1.008  -13.719014    1.995671   -5.125462
  58 H     1.0000    0     1.008  -14.558488   -0.780531   -6.802510
  59 H     1.0000    0     1.008  -11.574668   -0.563265   -5.331903
  60 H     1.0000    0     1.008   16.702641    0.795561   -2.813735
  61 H     1.0000    0     1.008   14.432659    3.231986   -2.820929
  62 H     1.0000    0     1.008   14.442362    3.228128    1.956774
  63 H     1.0000    0     1.008   16.724399    0.803598    1.918037
  64 H     1.0000    0     1.008   13.664419   -1.995330   -5.280673
  65 H     1.0000    0     1.008   14.491803    0.797395   -6.935938
  66 H     1.0000    0     1.008   11.519545    0.566303   -5.444225
  67 H     1.0000    0     1.008   11.569015    0.535201    4.599481
  68 H     1.0000    0     1.008   14.553251    0.785204    6.063747
  69 H     1.0000    0     1.008   13.730557   -2.010390    4.410083

--------------------------------
INTERNAL COORDINATES (ANGSTROEM)
--------------------------------
 C      0   0   0     0.000000000000     0.00000000     0.00000000
 C      1   0   0     1.461070576905     0.00000000     0.00000000
 C      2   1   0     1.424902787690   119.10796058     0.00000000
 C      3   2   1     1.424840807969   121.74915837     1.86266757
 C      4   3   2     1.461083046090   119.12285948   358.72576820
 C      1   2   3     1.424828662575   119.11673676   357.91059017
 C      2   1   3     1.394989205477   122.36463886   181.00545796
 C      7   2   1     1.392094852555   121.93190205   179.35015771
 C      8   7   2     1.382525428514   120.45768774   359.89256352
 C      9   8   7     1.408635634065   119.63427652     0.27424605
 C     10   9   8     1.408678689483   119.29575602   179.91795798
 C     11  10   9     1.382804770911   119.58684891   180.04467852
 C     12  11  10     1.392034784903   120.47218247   359.94001616
 C      5   4   3     1.395007299868   122.36433307   179.94769842
 C     14   5   4     1.392092680318   121.93259115   180.22934725
 C     15  14   5     1.382527734904   120.45808688     0.11308215
 C     16  15  14     1.408633248799   119.63353859   359.94382962
 C     17  16  15     1.408683332278   119.29609992   180.02706012
 C     18  17  16     1.382800918961   119.58784537   179.92305732
 C     19  18  17     1.392033896438   120.47183869     0.28130140
 C     16  15  14     1.478295943080   119.26983687   180.08872490
 N     21  16  15     1.396747430297   117.40545345   179.95858027
 C     22  21  16     1.404765725481   123.84745919   359.84587602
 C      9   8   7     1.478300947407   119.26896458   179.99938657
 N     24   9   8     1.396750395972   117.40549090   180.18212706
 C     25  24   9     1.404763758206   123.84750291   359.93000431
 O     24   9   8     1.223216645988   121.28306019     0.14152869
 O     26  25  24     1.222666273918   121.67860241   180.14927602
 O     21  16  15     1.223216135353   121.28374185   359.93984935
 O     23  22  21     1.222665075668   121.67807979   180.17111096
 C     22  21  16     1.492612780287   118.81544215   179.90339473
 C     25  24   9     1.492614432607   118.81487966   180.08553046
 C     31  22  21     1.532639045171   112.01052837   295.82518708
 C     31  22  21     1.532660613977   112.01345290    64.25640141
 C     34  31  22     1.526666257044   113.29556383    51.06018911
 C     33  31  22     1.526699020487   113.28554903   309.12443861
 C     32  25  24     1.532658717813   112.03581023   295.90212638
 C     32  25  24     1.532632234345   111.98781023    64.33043053
 C     37  32  25     1.526672076677   113.29298559   309.17994088
 C     38  32  25     1.526693055649   113.28906975    51.12037831
 H      7   2   1     1.083282018274   120.31295436   359.07389260
 H      8   7   2     1.085238899721   120.86691730   179.96768516
 H     12  11  10     1.085155206447   118.68866679   179.98481182
 H     13  12  11     1.083273006071   117.73211127   179.89081052
 H     14   5   4     1.083277974740   120.31681029     0.44291394
 H     15  14   5     1.085237064445   120.86626654   180.06235504
 H     19  18  17     1.085154939966   118.68841111   180.20654508
 H     20  19  18     1.083276141621   117.73669727   180.15611222
 H     31  22  21     1.094224449591   103.22432016   180.04623573
 H     32  25  24     1.094222899255   103.22554225   180.10921878
 H     33  31  22     1.097941760984   106.09596412   188.89663469
 H     33  31  22     1.093961460092   110.09218350    73.44248150
 H     34  31  22     1.093967447128   110.06316106   286.75194077
 H     34  31  22     1.097945774266   106.11013114   171.30914529
 H     35  34  31     1.095643029224   111.39449312   293.33465420
 H     35  34  31     1.094217024954   110.79165814   173.94013017
 H     35  34  31     1.095919591031   111.32061186    53.60778941
 H     36  33  31     1.095950868420   111.30664974   306.64778106
 H     36  33  31     1.094222231196   110.80282141   186.33524265
 H     36  33  31     1.095613291125   111.39713212    66.91965986
 H     37  32  25     1.097938973911   106.09491453   188.95337586
 H     37  32  25     1.093957383335   110.08824482    73.49497333
 H     38  32  25     1.093973366461   110.06487311   286.81203127
 H     38  32  25     1.097947008381   106.11132420   171.37051289
 H     39  37  32     1.095960481037   111.31520907   306.60371133
 H     39  37  32     1.094224645174   110.79788230   186.29634819
 H     39  37  32     1.095617206200   111.40004956    66.88402070
 H     40  38  32     1.095640623792   111.39213616   293.29273545
 H     40  38  32     1.094215106363   110.79499249   173.89479679
 H     40  38  32     1.095911204847   111.31262378    53.55904409

---------------------------
INTERNAL COORDINATES (A.U.)
---------------------------
 C      0   0   0     0.000000000000     0.00000000     0.00000000
 C      1   0   0     2.761023252680     0.00000000     0.00000000
 C      2   1   0     2.692676036195   119.10796058     0.00000000
 C      3   2   1     2.692558911496   121.74915837     1.86266757
 C      4   3   2     2.761046816026   119.12285948   358.72576820
 C      1   2   3     2.692535960027   119.11673676   357.91059017
 C      2   1   3     2.636147558128   122.36463886   181.00545796
 C      7   2   1     2.630678023770   121.93190205   179.35015771
 C      8   7   2     2.612594433074   120.45768774   359.89256352
 C      9   8   7     2.661935570866   119.63427652     0.27424605
 C     10   9   8     2.662016933815   119.29575602   179.91795798
 C     11  10   9     2.613122313702   119.58684891   180.04467852
 C     12  11  10     2.630564512358   120.47218247   359.94001616
 C      5   4   3     2.636181751571   122.36433307   179.94769842
 C     14   5   4     2.630673918837   121.93259115   180.22934725
 C     15  14   5     2.612598791519   120.45808688     0.11308215
 C     16  15  14     2.661931063367   119.63353859   359.94382962
 C     17  16  15     2.662025707424   119.29609992   180.02706012
 C     18  17  16     2.613115034572   119.58784537   179.92305732
 C     19  18  17     2.630562833403   120.47183869     0.28130140
 C     16  15  14     2.793574477309   119.26983687   180.08872490
 N     21  16  15     2.639470121519   117.40545345   179.95858027
 C     22  21  16     2.654622503478   123.84745919   359.84587602
 C      9   8   7     2.793583934116   119.26896458   179.99938657
 N     24   9   8     2.639475725832   117.40549090   180.18212706
 C     25  24   9     2.654618785868   123.84750291   359.93000431
 O     24   9   8     2.311544463371   121.28306019     0.14152869
 O     26  25  24     2.310504410888   121.67860241   180.14927602
 O     21  16  15     2.311543498411   121.28374185   359.93984935
 O     23  22  21     2.310502146522   121.67807979   180.17111096
 C     22  21  16     2.820629378734   118.81544215   179.90339473
 C     25  24   9     2.820632501165   118.81487966   180.08553046
 C     31  22  21     2.896268057529   112.01052837   295.82518708
 C     31  22  21     2.896308816664   112.01345290    64.25640141
 C     34  31  22     2.884981123713   113.29556383    51.06018911
 C     33  31  22     2.885043037646   113.28554903   309.12443861
 C     32  25  24     2.896305233433   112.03581023   295.90212638
 C     32  25  24     2.896255186932   111.98781023    64.33043053
 C     37  32  25     2.884992121225   113.29298559   309.17994088
 C     38  32  25     2.885031765736   113.28906975    51.12037831
 H      7   2   1     2.047106340339   120.31295436   359.07389260
 H      8   7   2     2.050804310350   120.86691730   179.96768516
 H     12  11  10     2.050646152983   118.68866679   179.98481182
 H     13  12  11     2.047089309743   117.73211127   179.89081052
 H     14   5   4     2.047098699168   120.31681029     0.44291394
 H     15  14   5     2.050800842182   120.86626654   180.06235504
 H     19  18  17     2.050645649408   118.68841111   180.20654508
 H     20  19  18     2.047095235075   117.73669727   180.15611222
 H     31  22  21     2.067784538768   103.22432016   180.04623573
 H     32  25  24     2.067781609058   103.22554225   180.10921878
 H     33  31  22     2.074809239255   106.09596412   188.89663469
 H     33  31  22     2.067287560638   110.09218350    73.44248150
 H     34  31  22     2.067298874497   110.06316106   286.75194077
 H     34  31  22     2.074816823259   106.11013114   171.30914529
 H     35  34  31     2.070465265774   111.39449312   293.33465420
 H     35  34  31     2.067770508238   110.79165814   173.94013017
 H     35  34  31     2.070987891848   111.32061186    53.60778941
 H     36  33  31     2.071046997547   111.30664974   306.64778106
 H     36  33  31     2.067780346609   110.80282141   186.33524265
 H     36  33  31     2.070409068910   111.39713212    66.91965986
 H     37  32  25     2.074803972450   106.09491453   188.95337586
 H     37  32  25     2.067279856685   110.08824482    73.49497333
 H     38  32  25     2.067310060416   110.06487311   286.81203127
 H     38  32  25     2.074819155399   106.11132420   171.37051289
 H     39  37  32     2.071065162761   111.31520907   306.60371133
 H     39  37  32     2.067784908365   110.79788230   186.29634819
 H     39  37  32     2.070416467329   111.40004956    66.88402070
 H     40  38  32     2.070460720165   111.39213616   293.29273545
 H     40  38  32     2.067766882626   110.79499249   173.89479679
 H     40  38  32     2.070972044257   111.31262378    53.55904409

---------------------
BASIS SET INFORMATION
---------------------
There are 4 groups of distinct atoms

 Group   1 Type C   : 11s6p2d1f contracted to 5s3p2d1f pattern {62111/411/11/1}
 Group   2 Type N   : 11s6p2d1f contracted to 5s3p2d1f pattern {62111/411/11/1}
 Group   3 Type O   : 11s6p2d1f contracted to 5s3p2d1f pattern {62111/411/11/1}
 Group   4 Type H   : 5s1p contracted to 3s1p pattern {311/1}

Atom   0C    basis set group =>   1
Atom   1C    basis set group =>   1
Atom   2C    basis set group =>   1
Atom   3C    basis set group =>   1
Atom   4C    basis set group =>   1
Atom   5C    basis set group =>   1
Atom   6C    basis set group =>   1
Atom   7C    basis set group =>   1
Atom   8C    basis set group =>   1
Atom   9C    basis set group =>   1
Atom  10C    basis set group =>   1
Atom  11C    basis set group =>   1
Atom  12C    basis set group =>   1
Atom  13C    basis set group =>   1
Atom  14C    basis set group =>   1
Atom  15C    basis set group =>   1
Atom  16C    basis set group =>   1
Atom  17C    basis set group =>   1
Atom  18C    basis set group =>   1
Atom  19C    basis set group =>   1
Atom  20C    basis set group =>   1
Atom  21N    basis set group =>   2
Atom  22C    basis set group =>   1
Atom  23C    basis set group =>   1
Atom  24N    basis set group =>   2
Atom  25C    basis set group =>   1
Atom  26O    basis set group =>   3
Atom  27O    basis set group =>   3
Atom  28O    basis set group =>   3
Atom  29O    basis set group =>   3
Atom  30C    basis set group =>   1
Atom  31C    basis set group =>   1
Atom  32C    basis set group =>   1
Atom  33C    basis set group =>   1
Atom  34C    basis set group =>   1
Atom  35C    basis set group =>   1
Atom  36C    basis set group =>   1
Atom  37C    basis set group =>   1
Atom  38C    basis set group =>   1
Atom  39C    basis set group =>   1
Atom  40H    basis set group =>   4
Atom  41H    basis set group =>   4
Atom  42H    basis set group =>   4
Atom  43H    basis set group =>   4
Atom  44H    basis set group =>   4
Atom  45H    basis set group =>   4
Atom  46H    basis set group =>   4
Atom  47H    basis set group =>   4
Atom  48H    basis set group =>   4
Atom  49H    basis set group =>   4
Atom  50H    basis set group =>   4
Atom  51H    basis set group =>   4
Atom  52H    basis set group =>   4
Atom  53H    basis set group =>   4
Atom  54H    basis set group =>   4
Atom  55H    basis set group =>   4
Atom  56H    basis set group =>   4
Atom  57H    basis set group =>   4
Atom  58H    basis set group =>   4
Atom  59H    basis set group =>   4
Atom  60H    basis set group =>   4
Atom  61H    basis set group =>   4
Atom  62H    basis set group =>   4
Atom  63H    basis set group =>   4
Atom  64H    basis set group =>   4
Atom  65H    basis set group =>   4
Atom  66H    basis set group =>   4
Atom  67H    basis set group =>   4
Atom  68H    basis set group =>   4
Atom  69H    basis set group =>   4
---------------------------------
AUXILIARY/J BASIS SET INFORMATION
---------------------------------
There are 4 groups of distinct atoms

 Group   1 Type C   : 12s5p4d2f1g contracted to 6s4p3d1f1g pattern {711111/2111/211/2/1}
 Group   2 Type N   : 12s5p4d2f1g contracted to 6s4p3d1f1g pattern {711111/2111/211/2/1}
 Group   3 Type O   : 12s5p4d2f1g contracted to 6s4p3d1f1g pattern {711111/2111/211/2/1}
 Group   4 Type H   : 5s2p1d contracted to 3s1p1d pattern {311/2/1}

Atom   0C    basis set group =>   1
Atom   1C    basis set group =>   1
Atom   2C    basis set group =>   1
Atom   3C    basis set group =>   1
Atom   4C    basis set group =>   1
Atom   5C    basis set group =>   1
Atom   6C    basis set group =>   1
Atom   7C    basis set group =>   1
Atom   8C    basis set group =>   1
Atom   9C    basis set group =>   1
Atom  10C    basis set group =>   1
Atom  11C    basis set group =>   1
Atom  12C    basis set group =>   1
Atom  13C    basis set group =>   1
Atom  14C    basis set group =>   1
Atom  15C    basis set group =>   1
Atom  16C    basis set group =>   1
Atom  17C    basis set group =>   1
Atom  18C    basis set group =>   1
Atom  19C    basis set group =>   1
Atom  20C    basis set group =>   1
Atom  21N    basis set group =>   2
Atom  22C    basis set group =>   1
Atom  23C    basis set group =>   1
Atom  24N    basis set group =>   2
Atom  25C    basis set group =>   1
Atom  26O    basis set group =>   3
Atom  27O    basis set group =>   3
Atom  28O    basis set group =>   3
Atom  29O    basis set group =>   3
Atom  30C    basis set group =>   1
Atom  31C    basis set group =>   1
Atom  32C    basis set group =>   1
Atom  33C    basis set group =>   1
Atom  34C    basis set group =>   1
Atom  35C    basis set group =>   1
Atom  36C    basis set group =>   1
Atom  37C    basis set group =>   1
Atom  38C    basis set group =>   1
Atom  39C    basis set group =>   1
Atom  40H    basis set group =>   4
Atom  41H    basis set group =>   4
Atom  42H    basis set group =>   4
Atom  43H    basis set group =>   4
Atom  44H    basis set group =>   4
Atom  45H    basis set group =>   4
Atom  46H    basis set group =>   4
Atom  47H    basis set group =>   4
Atom  48H    basis set group =>   4
Atom  49H    basis set group =>   4
Atom  50H    basis set group =>   4
Atom  51H    basis set group =>   4
Atom  52H    basis set group =>   4
Atom  53H    basis set group =>   4
Atom  54H    basis set group =>   4
Atom  55H    basis set group =>   4
Atom  56H    basis set group =>   4
Atom  57H    basis set group =>   4
Atom  58H    basis set group =>   4
Atom  59H    basis set group =>   4
Atom  60H    basis set group =>   4
Atom  61H    basis set group =>   4
Atom  62H    basis set group =>   4
Atom  63H    basis set group =>   4
Atom  64H    basis set group =>   4
Atom  65H    basis set group =>   4
Atom  66H    basis set group =>   4
Atom  67H    basis set group =>   4
Atom  68H    basis set group =>   4
Atom  69H    basis set group =>   4


           ************************************************************
           *        Program running with 8 parallel MPI-processes     *
           *              working on a common directory               *
           ************************************************************
------------------------------------------------------------------------------
                             ORCA STARTUP CALCULATIONS
                           -- RI-GTO INTEGRALS CHOSEN --
------------------------------------------------------------------------------
------------------------------------------------------------------------------
                   ___                                                        
                  /   \      - P O W E R E D   B Y -                         
                 /     \                                                     
                 |  |  |   _    _      __       _____    __    __             
                 |  |  |  | |  | |    /  \     |  _  \  |  |  /  |          
                  \  \/   | |  | |   /    \    | | | |  |  | /  /          
                 / \  \   | |__| |  /  /\  \   | |_| |  |  |/  /          
                |  |  |   |  __  | /  /__\  \  |    /   |      \           
                |  |  |   | |  | | |   __   |  |    \   |  |\   \          
                \     /   | |  | | |  |  |  |  | |\  \  |  | \   \       
                 \___/    |_|  |_| |__|  |__|  |_| \__\ |__|  \__/        
                                                                              
                      - O R C A' S   B I G   F R I E N D -                    
                                      &                                       
                       - I N T E G R A L  F E E D E R -                       
                                                                              
 v1 FN, 2020, v2 2021, v3 2022-2024                                           
------------------------------------------------------------------------------


----------------------
SHARK INTEGRAL PACKAGE
----------------------

Number of atoms                             ...     70
Number of basis functions                   ...   1420
Number of shells                            ...    560
Maximum angular momentum                    ...      3
Integral batch strategy                     ... SHARK/LIBINT Hybrid
RI-J (if used) integral strategy            ... SPLIT-RIJ (Revised 2003 algorithm where possible)
Printlevel                                  ...      1
Contraction scheme used                     ... SEGMENTED contraction
Prescreening option                         ... SCHWARTZ
   Thresh                                   ... 2.500e-11
   Tcut                                     ... 2.500e-12
   Tpresel                                  ... 2.500e-12 
Coulomb Range Separation                    ... NOT USED
Exchange Range Separation                   ... Long Range
   Mu parameter                             ... 3.000e-01
   Scaling (regular/separated)              ... 1.670e-01 8.330e-01
Robust (split-)RI terms used:
  metric    (central integrals)             ... YES
  density   (r.h.s.  integrals)             ... YES
  potential (l.h.s.  integrals)             ... YES
Multipole approximations                    ... NOT USED
Finite Nucleus Model                        ... NOT USED
CABS basis                                  ... NOT available
Auxiliary Coulomb fitting basis             ... AVAILABLE
   # of basis functions in Aux-J            ...   2290
   # of shells in Aux-J                     ...    750
   Maximum angular momentum in Aux-J        ...      4
Auxiliary J/K fitting basis                 ... NOT available
Auxiliary Correlation fitting basis         ... NOT available
Auxiliary 'external' fitting basis          ... NOT available

Checking pre-screening integrals            ... done (  0.0 sec) Dimension = 560
   => SHARK Basis and OBASIS are compatible. Storing Pre-screening
Shell pair information
Shell pair cut-off parameter TPreSel        ...   2.5e-12
Total number of shell pairs                 ...    157080
Shell pairs after pre-screening             ...     79938
Total number of primitive shell pairs       ...    481660
Primitive shell pairs kept                  ...    157960
          la=0 lb=0:  20218 shell pairs
          la=1 lb=0:  23329 shell pairs
          la=1 lb=1:   6733 shell pairs
          la=2 lb=0:  11226 shell pairs
          la=2 lb=1:   6590 shell pairs
          la=2 lb=2:   1625 shell pairs
          la=3 lb=0:   5236 shell pairs
          la=3 lb=1:   3108 shell pairs
          la=3 lb=2:   1496 shell pairs
          la=3 lb=3:    377 shell pairs

Checking whether 4 symmetric matrices of dimension 1420 fit in memory
:Max Core in MB      =   3000.00
 MB in use           =     78.77
 MB left             =   2921.23
 MB needed           =     30.79
 Data fit in memory  = YES
Calculating RI/J V-Matrix + Cholesky decomp.... done (  0.5 sec)
Calculating Nuclear repulsion               ... done (  0.0 sec) ENN=   4340.063956306825 Eh

Diagonalization of the overlap matrix:
Smallest eigenvalue                        ... 1.991e-06
Time for diagonalization                   ...    1.390 sec
Threshold for overlap eigenvalues          ... 1.000e-07
Number of eigenvalues below threshold      ... 0
Time for construction of square roots      ...    0.661 sec
Total time needed                          ...    2.119 sec

-------------------
DFT GRID GENERATION
-------------------

General Integration Accuracy     IntAcc      ... 4.388
Radial Grid Type                 RadialGrid  ... OptM3 with GC (2021)
Angular Grid (max. ang.)         AngularGrid ... 4 (Lebedev-302)
Angular grid pruning method      GridPruning ... 4 (adaptive)
Weight generation scheme         WeightScheme... mBecke (2022)
Basis function cutoff            BFCut       ... 1.0000e-11
Integration weight cutoff        WCut        ... 1.0000e-14
Partially contracted basis set               ... off
Rotationally invariant grid construction     ... off
Angular grids for H and He will be reduced by one unit

Total number of grid points                  ...   331982
Total number of batches                      ...     5228
Average number of points per batch           ...       63
Average number of grid points per atom       ...     4743

--------------------
COSX GRID GENERATION
--------------------

GRIDX 1
-------
General Integration Accuracy     IntAcc      ... 3.816
Radial Grid Type                 RadialGrid  ... OptM3 with GC (2021)
Angular Grid (max. ang.)         AngularGrid ... 1 (Lebedev-50)
Angular grid pruning method      GridPruning ... 4 (adaptive)
Weight generation scheme         WeightScheme... mBecke (2022)
Basis function cutoff            BFCut       ... 1.0000e-11
Integration weight cutoff        WCut        ... 1.0000e-14
Partially contracted basis set               ... on
Rotationally invariant grid construction     ... off
Angular grids for H and He will be reduced by one unit

Total number of grid points                  ...    42169
Total number of batches                      ...      369
Average number of points per batch           ...      114
Average number of grid points per atom       ...      602
UseSFitting                                  ... on

GRIDX 2
-------
General Integration Accuracy     IntAcc      ... 4.020
Radial Grid Type                 RadialGrid  ... OptM3 with GC (2021)
Angular Grid (max. ang.)         AngularGrid ... 2 (Lebedev-110)
Angular grid pruning method      GridPruning ... 4 (adaptive)
Weight generation scheme         WeightScheme... mBecke (2022)
Basis function cutoff            BFCut       ... 1.0000e-11
Integration weight cutoff        WCut        ... 1.0000e-14
Partially contracted basis set               ... on
Rotationally invariant grid construction     ... off
Angular grids for H and He will be reduced by one unit

Total number of grid points                  ...    90517
Total number of batches                      ...      746
Average number of points per batch           ...      121
Average number of grid points per atom       ...     1293
UseSFitting                                  ... on

GRIDX 3
-------
General Integration Accuracy     IntAcc      ... 4.338
Radial Grid Type                 RadialGrid  ... OptM3 with GC (2021)
Angular Grid (max. ang.)         AngularGrid ... 3 (Lebedev-194)
Angular grid pruning method      GridPruning ... 4 (adaptive)
Weight generation scheme         WeightScheme... mBecke (2022)
Basis function cutoff            BFCut       ... 1.0000e-11
Integration weight cutoff        WCut        ... 1.0000e-14
Partially contracted basis set               ... on
Rotationally invariant grid construction     ... off
Angular grids for H and He will be reduced by one unit

Total number of grid points                  ...   198011
Total number of batches                      ...     1585
Average number of points per batch           ...      124
Average number of grid points per atom       ...     2829
UseSFitting                                  ... on
Grids setup in   8.9 sec
Initializing property integral containers    ... done (  0.0 sec)

SHARK setup successfully completed in  12.5 seconds

Maximum memory used throughout the entire STARTUP-calculation: 151.4 MB


           ************************************************************
           *        Program running with 8 parallel MPI-processes     *
           *              working on a common directory               *
           ************************************************************
-------------------------------------------------------------------------------
                                 ORCA GUESS
                   Start orbitals & Density for SCF / CASSCF
-------------------------------------------------------------------------------

------------
SCF SETTINGS
------------
Hamiltonian:
 Density Functional     Method          .... DFT(GTOs)
 Exchange Functional    Exchange        .... WB97X-V
 Correlation Functional Correlation     .... WB97X-V
 Gradients option       PostSCFGGA      .... off
 Hybrid DFT is turned on
   Fraction HF Exchange ScalHFX         ....  0.167000
   Scaling of DF-GGA-X  ScalDFX         ....  0.000000
   Scaling of DF-GGA-C  ScalDFC         ....  1.000000
   Scaling of DF-LDA-C  ScalLDAC        ....  1.000000
   Perturbative correction              ....  0.000000
 Long-range corrected/Screened/Range-Separated Hybrid DFT is turned on
   Amount of maximum screened exact exchange              ....  0.833000
   Range separation parameter mu (erf(mu*r12)/r12)        ....  0.300000
 RI-approximation to the Coulomb term is turned on
   Number of AuxJ basis functions       .... 2290
   RIJ-COSX (HFX calculated with COS-X)).... on


General Settings:
 Integral files         IntName         .... pdi_terminal_functionalized_sp
 Hartree-Fock type      HFTyp           .... RHF
 Total Charge           Charge          ....    0
 Multiplicity           Mult            ....    1
 Number of Electrons    NEL             ....  280
 Basis Dimension        Dim             .... 1420
 Nuclear Repulsion      ENuc            ....   4340.0639563068 Eh

Convergence Acceleration:
 AO-DIIS                CNVDIIS         .... on
   Start iteration      DIISMaxIt       ....    12
   Startup error        DIISStart       ....  0.200000
   # of expansion vecs  DIISMaxEq       ....     5
   Bias factor          DIISBfac        ....   1.050
   Max. coefficient     DIISMaxC        ....  10.000
 MO-DIIS                CNVKDIIS        .... off
 Trust-Rad. Augm. Hess. CNVTRAH         .... auto
   Auto Start mean grad. ratio tolernc. ....  1.125000
   Auto Start start iteration           ....    50
   Auto Start num. interpolation iter.  ....    10
   Max. Number of Micro iterations      ....    24
   Max. Number of Macro iterations      .... Maxiter - #DIIS iter
   Number of Davidson start vectors     ....     2
   Converg. threshold    (grad. norm)   ....   1.000e-05
   Grad. Scal. Fac. for Micro threshold ....   0.100
   Minimum threshold for Micro iter.    ....   1.000e-02
   NR start threshold (gradient norm)   ....   1.000e-04
   Initial trust radius                 ....   0.400
   Minimum AH scaling param. (alpha)    ....   1.000
   Maximum AH scaling param. (alpha)    .... 1000.000
   Quad. conv. algorithm                .... NR
   White noise on init. David. guess    .... on
   Maximum white noise                  ....   0.010
   Pseudo random numbers                .... off
   Inactive MOs                         .... canonical
   Orbital update algorithm             .... Taylor
   Preconditioner                       .... Diag
   Full preconditioner red. dimension   ....   250
 SOSCF                 CNVSOSCF           .... on
   Start iteration     SOSCFMaxIt         ....   150
   Startup grad/error  SOSCFStart         ....  0.003300
   Hessian update      SOSCFHessUp        .... L-BFGS
   Autom. constraints  SOSCFAutoConstrain .... off
 Level Shifting         CNVShift        .... on
   Level shift para.    LevelShift      ....    0.2500
   Turn off err/grad.   ShiftErr        ....    0.0010
 Zerner damping         CNVZerner       .... off
 Static damping         CNVDamp         .... on
   Fraction old density DampFac         ....    0.7000
   Max. Damping (<1)    DampMax         ....    0.9800
   Min. Damping (>=0)   DampMin         ....    0.0000
   Turn off err/grad.   DampErr         ....    0.1000

SCF Procedure:
 Maximum # iterations   MaxIter         ....   125
 SCF integral mode      SCFMode         .... Direct
   Integral package                     .... SHARK and LIBINT hybrid scheme
 Reset frequency        DirectResetFreq ....    20
 Integral Threshold     Thresh          ....  2.500e-11 Eh
 Primitive CutOff       TCut            ....  2.500e-12 Eh

Convergence Tolerance:
 Convergence Check Mode ConvCheckMode   .... Total+1el-Energy
 Convergence forced     ConvForced      .... 0
 Energy Change          TolE            ....  1.000e-08 Eh
 1-El. energy change                    ....  1.000e-05 Eh
 Orbital Gradient       TolG            ....  1.000e-05
 Orbital Rotation angle TolX            ....  1.000e-05
 DIIS Error             TolErr          ....  5.000e-07

------------------------------
INITIAL GUESS: MODEL POTENTIAL
------------------------------
Loading Hartree-Fock densities                     ... done
Calculating cut-offs                               ... done
Initializing the effective Hamiltonian             ... done
Setting up the integral package (SHARK)            ... done
Starting the Coulomb interaction                   ... done (   1.1 sec)
Making the grid                                    ... done (   1.1 sec)
Mapping shells                                     ... done
Starting the XC term evaluation                    ... done (   0.6 sec)
  promolecular density results
     # of electrons  =    279.960914779
     EX              =   -154.550324746
     EC              =    -11.703467039
     EX+EC           =   -166.253791785
Transforming the Hamiltonian                       ... done (   0.7 sec)
Diagonalizing the Hamiltonian                      ... done (   1.5 sec)
Back transforming the eigenvectors                 ... done (   0.2 sec)
Now organizing SCF variables                       ... done
                      ------------------
                      INITIAL GUESS DONE (   5.6 sec)
                      ------------------
             **** ENERGY FILE WAS UPDATED (pdi_terminal_functionalized_sp.en.tmp) ****
Finished Guess after   6.6 sec
Maximum memory used throughout the entire GUESS-calculation: 137.3 MB


           ************************************************************
           *        Program running with 8 parallel MPI-processes     *
           *              working on a common directory               *
           ************************************************************

-------------------------------------------------------------------------------------------
                                      ORCA LEAN-SCF
                              memory conserving SCF solver
-------------------------------------------------------------------------------------------

----------------------------------------D-I-I-S--------------------------------------------
Iteration    Energy (Eh)           Delta-E    RMSDP     MaxDP     DIISErr   Damp  Time(sec)
-------------------------------------------------------------------------------------------
               ***  Starting incremental Fock matrix formation  ***
    1    -1725.1079680626789923     0.00e+00  4.10e-03  1.31e-01  3.35e-01  0.700  62.8
    2    -1725.2224680132867434    -1.14e-01  3.50e-03  1.08e-01  2.34e-01  0.700  30.3
                               ***Turning on AO-DIIS***
    3    -1725.2869015140504416    -6.44e-02  2.72e-03  7.73e-02  1.62e-01  0.700  26.6
    4    -1725.3287435684269440    -4.18e-02  2.04e-03  5.93e-02  1.11e-01  0.700  27.4
    5    -1725.3585643206897657    -2.98e-02  1.53e-03  4.53e-02  7.79e-02  0.700  26.2
    6    -1725.3799402325466872    -2.14e-02  3.81e-03  1.13e-01  5.47e-02  0.000  31.3
                              *** Initializing SOSCF ***
---------------------------------------S-O-S-C-F--------------------------------------
Iteration    Energy (Eh)           Delta-E    RMSDP     MaxDP     MaxGrad    Time(sec)
--------------------------------------------------------------------------------------
    7    -1725.4308450391272345    -5.09e-02  2.59e-04  6.93e-03  2.54e-03    38.7
               *** Restarting incremental Fock matrix formation ***
    8    -1725.4309727407589889    -1.28e-04  1.10e-03  3.00e-02  1.76e-03    47.8
    9    -1725.4310376300536518    -6.49e-05  5.61e-04  1.34e-02  9.17e-04    25.9
   10    -1725.4311123693832997    -7.47e-05  4.46e-04  1.14e-02  1.82e-04    24.6
   11    -1725.4311143150735006    -1.95e-06  1.87e-04  4.71e-03  9.28e-05    23.2
   12    -1725.4311147318539952    -4.17e-07  1.15e-04  3.03e-03  6.19e-05    21.3
   13    -1725.4311148628403316    -1.31e-07  3.81e-05  1.17e-03  1.40e-05    20.0
   14    -1725.4311148587075877     4.13e-09  1.60e-05  6.10e-04  6.79e-06    17.4
                 **** Energy Check signals convergence ****

               *****************************************************
               *                     SUCCESS                       *
               *           SCF CONVERGED AFTER  14 CYCLES          *
               *****************************************************

Recomputing exchange energy using gridx3       ... done (   64.338 sec)
Old exchange energy                            :    -75.521470054 Eh
New exchange energy                            :    -75.521355138 Eh
Exchange energy change after final integration :      0.000114915 Eh
Total energy after final integration           :  -1725.430999980 Eh
             **** ENERGY FILE WAS UPDATED (pdi_terminal_functionalized_sp.en.tmp) ****

----------------
TOTAL SCF ENERGY
----------------

Total Energy       :      -1725.43099998009257 Eh          -46951.36447 eV

Components:
Nuclear Repulsion  :       4340.06395630682528 Eh          118099.14430 eV
Electronic Energy  :      -6065.49507120219550 Eh         -165050.51189 eV
One Electron Energy:     -10974.35683436568434 Eh         -298627.43139 eV
Two Electron Energy:       4908.86176316348883 Eh          133576.91950 eV

Virial components:
Potential Energy   :      -3443.07722747237312 Eh          -93690.89451 eV
Kinetic Energy     :       1717.64622749228079 Eh           46739.53004 eV
Virial Ratio       :          2.00453223275155

DFT components:
N(Alpha)           :      140.000470918232 electrons
N(Beta)            :      140.000470918232 electrons
N(Total)           :      280.000941836464 electrons
E(X)               :     -157.828760058061 Eh       
E(C)               :      -11.764756625848 Eh       
E(XC)              :     -169.593516683909 Eh       

---------------
SCF CONVERGENCE
---------------

  Last Energy change         ...   -4.1327e-09  Tolerance :   1.0000e-08
  Last MAX-Density change    ...    6.0983e-04  Tolerance :   1.0000e-07
  Last RMS-Density change    ...    1.6003e-05  Tolerance :   5.0000e-09
  Last DIIS Error            ...    2.5388e-03  Tolerance :   5.0000e-07
  Last Orbital Gradient      ...    6.7889e-06  Tolerance :   1.0000e-05
  Last Orbital Rotation      ...    2.1213e-05  Tolerance :   1.0000e-05


----------------
ORBITAL ENERGIES
----------------

  NO   OCC          E(Eh)            E(eV) 
   0   2.0000     -19.204986      -522.5942 
   1   2.0000     -19.204985      -522.5942 
   2   2.0000     -19.203519      -522.5543 
   3   2.0000     -19.203516      -522.5542 
   4   2.0000     -14.470630      -393.7659 
   5   2.0000     -14.470627      -393.7658 
   6   2.0000     -10.405023      -283.1351 
   7   2.0000     -10.405023      -283.1351 
   8   2.0000     -10.403834      -283.1027 
   9   2.0000     -10.403830      -283.1026 
  10   2.0000     -10.329489      -281.0797 
  11   2.0000     -10.329472      -281.0792 
  12   2.0000     -10.329162      -281.0708 
  13   2.0000     -10.329131      -281.0699 
  14   2.0000     -10.322913      -280.9007 
  15   2.0000     -10.322900      -280.9004 
  16   2.0000     -10.322466      -280.8886 
  17   2.0000     -10.322455      -280.8883 
  18   2.0000     -10.312556      -280.6189 
  19   2.0000     -10.312552      -280.6188 
  20   2.0000     -10.312137      -280.6075 
  21   2.0000     -10.312132      -280.6074 
  22   2.0000     -10.311929      -280.6019 
  23   2.0000     -10.311928      -280.6018 
  24   2.0000     -10.310491      -280.5627 
  25   2.0000     -10.310488      -280.5627 
  26   2.0000     -10.310363      -280.5593 
  27   2.0000     -10.310360      -280.5592 
  28   2.0000     -10.308924      -280.5201 
  29   2.0000     -10.308921      -280.5200 
  30   2.0000     -10.308865      -280.5185 
  31   2.0000     -10.308862      -280.5184 
  32   2.0000     -10.266433      -279.3638 
  33   2.0000     -10.266430      -279.3638 
  34   2.0000     -10.266382      -279.3625 
  35   2.0000     -10.266379      -279.3624 
  36   2.0000     -10.259296      -279.1696 
  37   2.0000     -10.259267      -279.1688 
  38   2.0000     -10.259242      -279.1682 
  39   2.0000     -10.259212      -279.1673 
  40   2.0000      -1.206954       -32.8429 
  41   2.0000      -1.206950       -32.8428 
  42   2.0000      -1.186083       -32.2750 
  43   2.0000      -1.186082       -32.2749 
  44   2.0000      -1.085174       -29.5291 
  45   2.0000      -1.084164       -29.5016 
  46   2.0000      -1.072534       -29.1851 
  47   2.0000      -1.046856       -28.4864 
  48   2.0000      -1.013379       -27.5754 
  49   2.0000      -0.994810       -27.0701 
  50   2.0000      -0.990386       -26.9498 
  51   2.0000      -0.954217       -25.9656 
  52   2.0000      -0.939492       -25.5649 
  53   2.0000      -0.929264       -25.2866 
  54   2.0000      -0.919319       -25.0159 
  55   2.0000      -0.917418       -24.9642 
  56   2.0000      -0.906034       -24.6544 
  57   2.0000      -0.891256       -24.2523 
  58   2.0000      -0.891256       -24.2523 
  59   2.0000      -0.878085       -23.8939 
  60   2.0000      -0.837433       -22.7877 
  61   2.0000      -0.832307       -22.6482 
  62   2.0000      -0.821524       -22.3548 
  63   2.0000      -0.801096       -21.7989 
  64   2.0000      -0.797464       -21.7001 
  65   2.0000      -0.795907       -21.6577 
  66   2.0000      -0.778445       -21.1826 
  67   2.0000      -0.762104       -20.7379 
  68   2.0000      -0.761536       -20.7225 
  69   2.0000      -0.755799       -20.5663 
  70   2.0000      -0.729266       -19.8443 
  71   2.0000      -0.729266       -19.8443 
  72   2.0000      -0.724185       -19.7061 
  73   2.0000      -0.715203       -19.4617 
  74   2.0000      -0.693445       -18.8696 
  75   2.0000      -0.683967       -18.6117 
  76   2.0000      -0.680819       -18.5260 
  77   2.0000      -0.661073       -17.9887 
  78   2.0000      -0.651248       -17.7214 
  79   2.0000      -0.641437       -17.4544 
  80   2.0000      -0.634074       -17.2540 
  81   2.0000      -0.617241       -16.7960 
  82   2.0000      -0.613791       -16.7021 
  83   2.0000      -0.613589       -16.6966 
  84   2.0000      -0.612747       -16.6737 
  85   2.0000      -0.598500       -16.2860 
  86   2.0000      -0.595135       -16.1945 
  87   2.0000      -0.592997       -16.1363 
  88   2.0000      -0.579139       -15.7592 
  89   2.0000      -0.575220       -15.6525 
  90   2.0000      -0.573444       -15.6042 
  91   2.0000      -0.566083       -15.4039 
  92   2.0000      -0.561061       -15.2672 
  93   2.0000      -0.559237       -15.2176 
  94   2.0000      -0.556600       -15.1459 
  95   2.0000      -0.552253       -15.0276 
  96   2.0000      -0.552226       -15.0268 
  97   2.0000      -0.550176       -14.9710 
  98   2.0000      -0.546312       -14.8659 
  99   2.0000      -0.544673       -14.8213 
 100   2.0000      -0.535584       -14.5740 
 101   2.0000      -0.532051       -14.4778 
 102   2.0000      -0.526417       -14.3245 
 103   2.0000      -0.525282       -14.2936 
 104   2.0000      -0.524999       -14.2860 
 105   2.0000      -0.522418       -14.2157 
 106   2.0000      -0.522108       -14.2073 
 107   2.0000      -0.513133       -13.9631 
 108   2.0000      -0.512895       -13.9566 
 109   2.0000      -0.511018       -13.9055 
 110   2.0000      -0.507731       -13.8161 
 111   2.0000      -0.499720       -13.5981 
 112   2.0000      -0.499461       -13.5910 
 113   2.0000      -0.490116       -13.3367 
 114   2.0000      -0.481865       -13.1122 
 115   2.0000      -0.471290       -12.8245 
 116   2.0000      -0.464760       -12.6468 
 117   2.0000      -0.464596       -12.6423 
 118   2.0000      -0.458581       -12.4786 
 119   2.0000      -0.458574       -12.4784 
 120   2.0000      -0.455127       -12.3846 
 121   2.0000      -0.452596       -12.3158 
 122   2.0000      -0.451484       -12.2855 
 123   2.0000      -0.444660       -12.0998 
 124   2.0000      -0.444333       -12.0909 
 125   2.0000      -0.439022       -11.9464 
 126   2.0000      -0.437644       -11.9089 
 127   2.0000      -0.433992       -11.8095 
 128   2.0000      -0.430889       -11.7251 
 129   2.0000      -0.387840       -10.5537 
 130   2.0000      -0.387619       -10.5476 
 131   2.0000      -0.385861       -10.4998 
 132   2.0000      -0.383404       -10.4329 
 133   2.0000      -0.383332       -10.4310 
 134   2.0000      -0.379982       -10.3398 
 135   2.0000      -0.374848       -10.2001 
 136   2.0000      -0.373889       -10.1740 
 137   2.0000      -0.371984       -10.1222 
 138   2.0000      -0.368042       -10.0149 
 139   2.0000      -0.296534        -8.0691 
 140   0.0000      -0.075728        -2.0607 
 141   0.0000      -0.001053        -0.0287 
 142   0.0000       0.005616         0.1528 
 143   0.0000       0.016832         0.4580 
 144   0.0000       0.042007         1.1431 
 145   0.0000       0.063972         1.7408 
 146   0.0000       0.065598         1.7850 
 147   0.0000       0.100296         2.7292 
 148   0.0000       0.109920         2.9911 
 149   0.0000       0.110600         3.0096 
 150   0.0000       0.113574         3.0905 
*Only the first 10 virtual orbitals were printed.

                    ********************************
                    * MULLIKEN POPULATION ANALYSIS *
                    ********************************

-----------------------
MULLIKEN ATOMIC CHARGES
-----------------------
   0 C :    0.127986
   1 C :    0.128930
   2 C :   -0.011459
   3 C :    0.132433
   4 C :    0.133904
   5 C :   -0.011776
   6 C :   -0.180136
   7 C :   -0.191344
   8 C :    0.129863
   9 C :   -0.010921
  10 C :    0.086947
  11 C :   -0.188430
  12 C :   -0.180281
  13 C :   -0.184214
  14 C :   -0.187252
  15 C :    0.127239
  16 C :   -0.011848
  17 C :    0.089365
  18 C :   -0.188343
  19 C :   -0.178219
  20 C :    0.086790
  21 N :    0.009358
  22 C :    0.141991
  23 C :    0.086736
  24 N :    0.009628
  25 C :    0.142664
  26 O :   -0.349919
  27 O :   -0.349990
  28 O :   -0.350162
  29 O :   -0.350087
  30 C :   -0.030551
  31 C :   -0.030673
  32 C :   -0.165129
  33 C :   -0.165574
  34 C :   -0.356260
  35 C :   -0.356852
  36 C :   -0.165164
  37 C :   -0.165768
  38 C :   -0.356334
  39 C :   -0.356163
  40 H :    0.111534
  41 H :    0.159115
  42 H :    0.159631
  43 H :    0.111467
  44 H :    0.111595
  45 H :    0.159738
  46 H :    0.159417
  47 H :    0.111452
  48 H :    0.140776
  49 H :    0.140775
  50 H :    0.096498
  51 H :    0.128412
  52 H :    0.128330
  53 H :    0.096402
  54 H :    0.104744
  55 H :    0.121076
  56 H :    0.117686
  57 H :    0.117778
  58 H :    0.121186
  59 H :    0.104829
  60 H :    0.096433
  61 H :    0.128265
  62 H :    0.128430
  63 H :    0.096441
  64 H :    0.117601
  65 H :    0.121074
  66 H :    0.104831
  67 H :    0.104648
  68 H :    0.121171
  69 H :    0.117683
Sum of atomic charges:   -0.0000000

--------------------------------
MULLIKEN REDUCED ORBITAL CHARGES
--------------------------------
  0 C s       :     3.194450  s :     3.194450
      pz      :     0.910171  p :     2.529831
      px      :     0.783680
      py      :     0.835981
      dz2     :     0.004660  d :     0.137647
      dxz     :     0.024350
      dyz     :     0.025235
      dx2y2   :     0.041630
      dxy     :     0.041772
      f0      :     0.001812  f :     0.010086
      f+1     :     0.000772
      f-1     :     0.000651
      f+2     :     0.000784
      f-2     :     0.001061
      f+3     :     0.001548
      f-3     :     0.003457

  1 C s       :     3.192259  s :     3.192259
      pz      :     0.911323  p :     2.530843
      px      :     0.782754
      py      :     0.836766
      dz2     :     0.004640  d :     0.137886
      dxz     :     0.024242
      dyz     :     0.025279
      dx2y2   :     0.041970
      dxy     :     0.041754
      f0      :     0.001813  f :     0.010083
      f+1     :     0.000773
      f-1     :     0.000650
      f+2     :     0.000781
      f-2     :     0.001062
      f+3     :     0.001538
      f-3     :     0.003465

  2 C s       :     3.250530  s :     3.250530
      pz      :     0.961794  p :     2.602972
      px      :     0.801356
      py      :     0.839822
      dz2     :     0.004159  d :     0.147486
      dxz     :     0.021475
      dyz     :     0.023467
      dx2y2   :     0.048969
      dxy     :     0.049416
      f0      :     0.001890  f :     0.010472
      f+1     :     0.000729
      f-1     :     0.000755
      f+2     :     0.001044
      f-2     :     0.000877
      f+3     :     0.001585
      f-3     :     0.003592

  3 C s       :     3.192648  s :     3.192648
      pz      :     0.911340  p :     2.526786
      px      :     0.777469
      py      :     0.837976
      dz2     :     0.004623  d :     0.138050
      dxz     :     0.024361
      dyz     :     0.025247
      dx2y2   :     0.041965
      dxy     :     0.041854
      f0      :     0.001814  f :     0.010083
      f+1     :     0.000771
      f-1     :     0.000650
      f+2     :     0.000783
      f-2     :     0.001061
      f+3     :     0.001548
      f-3     :     0.003457

  4 C s       :     3.193228  s :     3.193228
      pz      :     0.912359  p :     2.525054
      px      :     0.776832
      py      :     0.835863
      dz2     :     0.004615  d :     0.137729
      dxz     :     0.024245
      dyz     :     0.025285
      dx2y2   :     0.041993
      dxy     :     0.041590
      f0      :     0.001814  f :     0.010084
      f+1     :     0.000772
      f-1     :     0.000650
      f+2     :     0.000781
      f-2     :     0.001062
      f+3     :     0.001539
      f-3     :     0.003466

  5 C s       :     3.252859  s :     3.252859
      pz      :     0.961793  p :     2.601019
      px      :     0.800983
      py      :     0.838242
      dz2     :     0.004150  d :     0.147428
      dxz     :     0.021476
      dyz     :     0.023463
      dx2y2   :     0.048921
      dxy     :     0.049418
      f0      :     0.001890  f :     0.010471
      f+1     :     0.000728
      f-1     :     0.000755
      f+2     :     0.001044
      f-2     :     0.000877
      f+3     :     0.001586
      f-3     :     0.003591

  6 C s       :     3.219942  s :     3.219942
      pz      :     0.973310  p :     2.871964
      px      :     0.943222
      py      :     0.955432
      dz2     :     0.004918  d :     0.080780
      dxz     :     0.018492
      dyz     :     0.008711
      dx2y2   :     0.021073
      dxy     :     0.027586
      f0      :     0.001584  f :     0.007450
      f+1     :     0.000605
      f-1     :     0.000620
      f+2     :     0.000715
      f-2     :     0.000501
      f+3     :     0.001135
      f-3     :     0.002291

  7 C s       :     3.236767  s :     3.236767
      pz      :     0.889242  p :     2.856848
      px      :     0.976788
      py      :     0.990818
      dz2     :     0.003722  d :     0.090101
      dxz     :     0.021352
      dyz     :     0.010789
      dx2y2   :     0.022081
      dxy     :     0.032158
      f0      :     0.001596  f :     0.007627
      f+1     :     0.000626
      f-1     :     0.000593
      f+2     :     0.000899
      f-2     :     0.000522
      f+3     :     0.001064
      f-3     :     0.002328

  8 C s       :     3.198087  s :     3.198087
      pz      :     0.992454  p :     2.540302
      px      :     0.752824
      py      :     0.795024
      dz2     :     0.006849  d :     0.121503
      dxz     :     0.013374
      dyz     :     0.025244
      dx2y2   :     0.045910
      dxy     :     0.030126
      f0      :     0.001855  f :     0.010245
      f+1     :     0.000858
      f-1     :     0.000678
      f+2     :     0.000538
      f-2     :     0.001053
      f+3     :     0.001523
      f-3     :     0.003741

  9 C s       :     3.258281  s :     3.258281
      pz      :     0.920220  p :     2.579607
      px      :     0.842545
      py      :     0.816843
      dz2     :     0.003964  d :     0.162170
      dxz     :     0.024848
      dyz     :     0.026654
      dx2y2   :     0.052472
      dxy     :     0.054232
      f0      :     0.001923  f :     0.010862
      f+1     :     0.000724
      f-1     :     0.000694
      f+2     :     0.001073
      f-2     :     0.001077
      f+3     :     0.001548
      f-3     :     0.003822

 10 C s       :     3.199562  s :     3.199562
      pz      :     0.993571  p :     2.582322
      px      :     0.795737
      py      :     0.793015
      dz2     :     0.006921  d :     0.120881
      dxz     :     0.013531
      dyz     :     0.025217
      dx2y2   :     0.045882
      dxy     :     0.029330
      f0      :     0.001864  f :     0.010288
      f+1     :     0.000870
      f-1     :     0.000678
      f+2     :     0.000533
      f-2     :     0.001054
      f+3     :     0.001527
      f-3     :     0.003761

 11 C s       :     3.239928  s :     3.239928
      pz      :     0.888292  p :     2.850548
      px      :     0.972449
      py      :     0.989807
      dz2     :     0.003684  d :     0.090327
      dxz     :     0.021227
      dyz     :     0.011013
      dx2y2   :     0.022062
      dxy     :     0.032341
      f0      :     0.001598  f :     0.007628
      f+1     :     0.000625
      f-1     :     0.000593
      f+2     :     0.000915
      f-2     :     0.000508
      f+3     :     0.001063
      f-3     :     0.002327

 12 C s       :     3.221365  s :     3.221365
      pz      :     0.973896  p :     2.870854
      px      :     0.940505
      py      :     0.956453
      dz2     :     0.004914  d :     0.080615
      dxz     :     0.018560
      dyz     :     0.008573
      dx2y2   :     0.021189
      dxy     :     0.027379
      f0      :     0.001585  f :     0.007447
      f+1     :     0.000605
      f-1     :     0.000619
      f+2     :     0.000700
      f-2     :     0.000512
      f+3     :     0.001138
      f-3     :     0.002287

 13 C s       :     3.221452  s :     3.221452
      pz      :     0.973545  p :     2.874658
      px      :     0.945345
      py      :     0.955769
      dz2     :     0.004912  d :     0.080655
      dxz     :     0.018494
      dyz     :     0.008706
      dx2y2   :     0.021036
      dxy     :     0.027507
      f0      :     0.001584  f :     0.007449
      f+1     :     0.000605
      f-1     :     0.000619
      f+2     :     0.000715
      f-2     :     0.000501
      f+3     :     0.001134
      f-3     :     0.002291

 14 C s       :     3.227761  s :     3.227761
      pz      :     0.889138  p :     2.861659
      px      :     0.981075
      py      :     0.991446
      dz2     :     0.003722  d :     0.090206
      dxz     :     0.021354
      dyz     :     0.010790
      dx2y2   :     0.022220
      dxy     :     0.032120
      f0      :     0.001596  f :     0.007627
      f+1     :     0.000624
      f-1     :     0.000593
      f+2     :     0.000899
      f-2     :     0.000521
      f+3     :     0.001064
      f-3     :     0.002328

 15 C s       :     3.204461  s :     3.204461
      pz      :     0.992132  p :     2.536768
      px      :     0.751641
      py      :     0.792995
      dz2     :     0.006861  d :     0.121285
      dxz     :     0.013377
      dyz     :     0.025237
      dx2y2   :     0.045914
      dxy     :     0.029896
      f0      :     0.001855  f :     0.010247
      f+1     :     0.000858
      f-1     :     0.000679
      f+2     :     0.000538
      f-2     :     0.001053
      f+3     :     0.001523
      f-3     :     0.003742

 16 C s       :     3.257807  s :     3.257807
      pz      :     0.920178  p :     2.581149
      px      :     0.844120
      py      :     0.816851
      dz2     :     0.003958  d :     0.162027
      dxz     :     0.024854
      dyz     :     0.026656
      dx2y2   :     0.052398
      dxy     :     0.054163
      f0      :     0.001923  f :     0.010865
      f+1     :     0.000724
      f-1     :     0.000695
      f+2     :     0.001074
      f-2     :     0.001078
      f+3     :     0.001548
      f-3     :     0.003824

 17 C s       :     3.192762  s :     3.192762
      pz      :     0.993798  p :     2.586618
      px      :     0.798661
      py      :     0.794159
      dz2     :     0.006937  d :     0.120966
      dxz     :     0.013530
      dyz     :     0.025216
      dx2y2   :     0.045975
      dxy     :     0.029307
      f0      :     0.001863  f :     0.010289
      f+1     :     0.000870
      f-1     :     0.000679
      f+2     :     0.000534
      f-2     :     0.001055
      f+3     :     0.001527
      f-3     :     0.003762

 18 C s       :     3.239739  s :     3.239739
      pz      :     0.888422  p :     2.850772
      px      :     0.970801
      py      :     0.991549
      dz2     :     0.003691  d :     0.090204
      dxz     :     0.021229
      dyz     :     0.011010
      dx2y2   :     0.022072
      dxy     :     0.032201
      f0      :     0.001597  f :     0.007629
      f+1     :     0.000625
      f-1     :     0.000593
      f+2     :     0.000915
      f-2     :     0.000508
      f+3     :     0.001063
      f-3     :     0.002328

 19 C s       :     3.221554  s :     3.221554
      pz      :     0.973539  p :     2.868581
      px      :     0.940447
      py      :     0.954594
      dz2     :     0.004903  d :     0.080636
      dxz     :     0.018570
      dyz     :     0.008574
      dx2y2   :     0.021192
      dxy     :     0.027397
      f0      :     0.001584  f :     0.007448
      f+1     :     0.000606
      f-1     :     0.000620
      f+2     :     0.000701
      f-2     :     0.000513
      f+3     :     0.001138
      f-3     :     0.002287

 20 C s       :     3.153188  s :     3.153188
      pz      :     0.763177  p :     2.474692
      px      :     0.918707
      py      :     0.792808
      dz2     :     0.005784  d :     0.263738
      dxz     :     0.029677
      dyz     :     0.065531
      dx2y2   :     0.104007
      dxy     :     0.058739
      f0      :     0.002794  f :     0.021593
      f+1     :     0.000986
      f-1     :     0.001359
      f+2     :     0.001462
      f-2     :     0.003193
      f+3     :     0.003195
      f-3     :     0.008604

 21 N s       :     3.387310  s :     3.387310
      pz      :     1.547205  p :     3.520555
      px      :     1.011405
      py      :     0.961945
      dz2     :     0.006344  d :     0.078059
      dxz     :     0.012105
      dyz     :     0.008646
      dx2y2   :     0.023404
      dxy     :     0.027561
      f0      :     0.000834  f :     0.004719
      f+1     :     0.000604
      f-1     :     0.000641
      f+2     :     0.000439
      f-2     :     0.000209
      f+3     :     0.000760
      f-3     :     0.001232

 22 C s       :     3.119291  s :     3.119291
      pz      :     0.755619  p :     2.447487
      px      :     0.896886
      py      :     0.794982
      dz2     :     0.006832  d :     0.269793
      dxz     :     0.029470
      dyz     :     0.064891
      dx2y2   :     0.108188
      dxy     :     0.060412
      f0      :     0.002799  f :     0.021438
      f+1     :     0.000953
      f-1     :     0.001358
      f+2     :     0.001433
      f-2     :     0.003153
      f+3     :     0.003311
      f-3     :     0.008430

 23 C s       :     3.151686  s :     3.151686
      pz      :     0.763049  p :     2.476050
      px      :     0.920461
      py      :     0.792540
[...]
      px      :     0.013117
      py      :     0.034740



                      *****************************
                      * MAYER POPULATION ANALYSIS *
                      *****************************

  NA   - Mulliken gross atomic population
  ZA   - Total nuclear charge
  QA   - Mulliken gross atomic charge
  VA   - Mayer's total valence
  BVA  - Mayer's bonded valence
  FA   - Mayer's free valence

  ATOM       NA         ZA         QA         VA         BVA        FA
  0 C      5.8720     6.0000     0.1280     3.7744     3.7744    -0.0000
  1 C      5.8711     6.0000     0.1289     3.7734     3.7734    -0.0000
  2 C      6.0115     6.0000    -0.0115     3.8118     3.8118    -0.0000
  3 C      5.8676     6.0000     0.1324     3.7692     3.7692    -0.0000
  4 C      5.8661     6.0000     0.1339     3.7646     3.7646     0.0000
  5 C      6.0118     6.0000    -0.0118     3.8086     3.8086    -0.0000
  6 C      6.1801     6.0000    -0.1801     3.8394     3.8394     0.0000
  7 C      6.1913     6.0000    -0.1913     3.9803     3.9803     0.0000
  8 C      5.8701     6.0000     0.1299     3.5617     3.5617     0.0000
  9 C      6.0109     6.0000    -0.0109     3.8526     3.8526    -0.0000
 10 C      5.9131     6.0000     0.0869     3.6156     3.6156    -0.0000
 11 C      6.1884     6.0000    -0.1884     3.9725     3.9725    -0.0000
 12 C      6.1803     6.0000    -0.1803     3.8338     3.8338    -0.0000
 13 C      6.1842     6.0000    -0.1842     3.8466     3.8466    -0.0000
 14 C      6.1873     6.0000    -0.1873     3.9829     3.9829    -0.0000
 15 C      5.8728     6.0000     0.1272     3.5589     3.5589    -0.0000
 16 C      6.0118     6.0000    -0.0118     3.8597     3.8597    -0.0000
 17 C      5.9106     6.0000     0.0894     3.6110     3.6110    -0.0000
 18 C      6.1883     6.0000    -0.1883     3.9751     3.9751    -0.0000
 19 C      6.1782     6.0000    -0.1782     3.8333     3.8333    -0.0000
 20 C      5.9132     6.0000     0.0868     4.3000     4.3000    -0.0000
 21 N      6.9906     7.0000     0.0094     3.0630     3.0630    -0.0000
 22 C      5.8580     6.0000     0.1420     4.2725     4.2725    -0.0000
 23 C      5.9133     6.0000     0.0867     4.2980     4.2980    -0.0000
 24 N      6.9904     7.0000     0.0096     3.0629     3.0629    -0.0000
 25 C      5.8573     6.0000     0.1427     4.2723     4.2723    -0.0000
 26 O      8.3499     8.0000    -0.3499     2.1683     2.1683    -0.0000
 27 O      8.3500     8.0000    -0.3500     2.1641     2.1641    -0.0000
 28 O      8.3502     8.0000    -0.3502     2.1677     2.1677    -0.0000
 29 O      8.3501     8.0000    -0.3501     2.1638     2.1638    -0.0000
 30 C      6.0306     6.0000    -0.0306     3.7989     3.7989    -0.0000
 31 C      6.0307     6.0000    -0.0307     3.7987     3.7987    -0.0000
 32 C      6.1651     6.0000    -0.1651     3.8553     3.8553    -0.0000
 33 C      6.1656     6.0000    -0.1656     3.8567     3.8567    -0.0000
 34 C      6.3563     6.0000    -0.3563     3.9427     3.9427    -0.0000
 35 C      6.3569     6.0000    -0.3569     3.9436     3.9436    -0.0000
 36 C      6.1652     6.0000    -0.1652     3.8553     3.8553    -0.0000
 37 C      6.1658     6.0000    -0.1658     3.8579     3.8579    -0.0000
 38 C      6.3563     6.0000    -0.3563     3.9436     3.9436    -0.0000
 39 C      6.3562     6.0000    -0.3562     3.9435     3.9435    -0.0000
 40 H      0.8885     1.0000     0.1115     0.9864     0.9864     0.0000
 41 H      0.8409     1.0000     0.1591     0.9917     0.9917    -0.0000
 42 H      0.8404     1.0000     0.1596     0.9905     0.9905     0.0000
 43 H      0.8885     1.0000     0.1115     0.9866     0.9866    -0.0000
 44 H      0.8884     1.0000     0.1116     0.9867     0.9867     0.0000
 45 H      0.8403     1.0000     0.1597     0.9910     0.9910    -0.0000
 46 H      0.8406     1.0000     0.1594     0.9911     0.9911    -0.0000
 47 H      0.8885     1.0000     0.1115     0.9863     0.9863     0.0000
 48 H      0.8592     1.0000     0.1408     0.9916     0.9916    -0.0000
 49 H      0.8592     1.0000     0.1408     0.9916     0.9916    -0.0000
 50 H      0.9035     1.0000     0.0965     0.9698     0.9698    -0.0000
 51 H      0.8716     1.0000     0.1284     0.9864     0.9864    -0.0000
 52 H      0.8717     1.0000     0.1283     0.9865     0.9865    -0.0000
 53 H      0.9036     1.0000     0.0964     0.9698     0.9698    -0.0000
 54 H      0.8953     1.0000     0.1047     0.9769     0.9769    -0.0000
 55 H      0.8789     1.0000     0.1211     0.9704     0.9704    -0.0000
 56 H      0.8823     1.0000     0.1177     0.9772     0.9772    -0.0000
 57 H      0.8822     1.0000     0.1178     0.9772     0.9772    -0.0000
 58 H      0.8788     1.0000     0.1212     0.9705     0.9705    -0.0000
 59 H      0.8952     1.0000     0.1048     0.9766     0.9766    -0.0000
 60 H      0.9036     1.0000     0.0964     0.9698     0.9698    -0.0000
 61 H      0.8717     1.0000     0.1283     0.9864     0.9864    -0.0000
 62 H      0.8716     1.0000     0.1284     0.9864     0.9864    -0.0000
 63 H      0.9036     1.0000     0.0964     0.9698     0.9698    -0.0000
 64 H      0.8824     1.0000     0.1176     0.9772     0.9772    -0.0000
 65 H      0.8789     1.0000     0.1211     0.9705     0.9705     0.0000
 66 H      0.8952     1.0000     0.1048     0.9768     0.9768    -0.0000
 67 H      0.8954     1.0000     0.1046     0.9768     0.9768    -0.0000
 68 H      0.8788     1.0000     0.1212     0.9704     0.9704    -0.0000
 69 H      0.8823     1.0000     0.1177     0.9774     0.9774    -0.0000

  Mayer bond orders larger than 0.100000
B(  0-C ,  1-C ) :   1.0446 B(  0-C ,  5-C ) :   1.2516 B(  0-C , 19-C ) :   1.4434 
B(  1-C ,  2-C ) :   1.2525 B(  1-C ,  6-C ) :   1.4440 B(  2-C ,  3-C ) :   1.2551 
B(  2-C ,  9-C ) :   1.2946 B(  3-C ,  4-C ) :   1.0401 B(  3-C , 12-C ) :   1.4423 
B(  4-C ,  5-C ) :   1.2555 B(  4-C , 13-C ) :   1.4437 B(  5-C , 16-C ) :   1.2962 
B(  6-C ,  7-C ) :   1.2925 B(  6-C , 40-H ) :   0.9797 B(  7-C ,  8-C ) :   1.4960 
B(  7-C , 26-O ) :   0.1103 B(  7-C , 41-H ) :   0.9626 B(  8-C ,  9-C ) :   1.2383 
B(  8-C , 23-C ) :   0.9260 B(  8-C , 26-O ) :  -0.1471 B(  9-C , 10-C ) :   1.2460 
B( 10-C , 11-C ) :   1.5048 B( 10-C , 25-C ) :   0.9214 B( 10-C , 27-O ) :  -0.1437 
B( 11-C , 12-C ) :   1.2878 B( 11-C , 27-O ) :   0.1078 B( 11-C , 42-H ) :   0.9646 
B( 12-C , 43-H ) :   0.9803 B( 13-C , 14-C ) :   1.2961 B( 13-C , 44-H ) :   0.9800 
B( 14-C , 15-C ) :   1.4959 B( 14-C , 28-O ) :   0.1118 B( 14-C , 45-H ) :   0.9601 
B( 15-C , 16-C ) :   1.2373 B( 15-C , 20-C ) :   0.9255 B( 15-C , 28-O ) :  -0.1490 
B( 16-C , 17-C ) :   1.2438 B( 17-C , 18-C ) :   1.5080 B( 17-C , 22-C ) :   0.9205 
B( 17-C , 29-O ) :  -0.1462 B( 18-C , 19-C ) :   1.2881 B( 18-C , 29-O ) :   0.1073 
B( 18-C , 46-H ) :   0.9625 B( 19-C , 47-H ) :   0.9809 B( 20-C , 21-N ) :   1.1564 
B( 20-C , 28-O ) :   2.0747 B( 21-N , 22-C ) :   1.1737 B( 21-N , 30-C ) :   0.7875 
B( 22-C , 29-O ) :   2.0679 B( 23-C , 24-N ) :   1.1564 B( 23-C , 26-O ) :   2.0738 
B( 24-N , 25-C ) :   1.1735 B( 24-N , 31-C ) :   0.7874 B( 25-C , 27-O ) :   2.0672 
B( 30-C , 32-C ) :   0.9693 B( 30-C , 33-C ) :   0.9700 B( 30-C , 48-H ) :   0.9676 
B( 31-C , 36-C ) :   0.9693 B( 31-C , 37-C ) :   0.9700 B( 31-C , 49-H ) :   0.9675 
B( 32-C , 35-C ) :   0.9820 B( 32-C , 50-H ) :   0.9690 B( 32-C , 51-H ) :   0.9683 
B( 33-C , 34-C ) :   0.9822 B( 33-C , 52-H ) :   0.9683 B( 33-C , 53-H ) :   0.9689 
B( 34-C , 54-H ) :   0.9812 B( 34-C , 55-H ) :   0.9810 B( 34-C , 56-H ) :   0.9772 
B( 35-C , 57-H ) :   0.9775 B( 35-C , 58-H ) :   0.9810 B( 35-C , 59-H ) :   0.9810 
B( 36-C , 38-C ) :   0.9824 B( 36-C , 60-H ) :   0.9690 B( 36-C , 61-H ) :   0.9681 
B( 37-C , 39-C ) :   0.9826 B( 37-C , 62-H ) :   0.9682 B( 37-C , 63-H ) :   0.9690 
B( 38-C , 64-H ) :   0.9774 B( 38-C , 65-H ) :   0.9810 B( 38-C , 66-H ) :   0.9812 
B( 39-C , 67-H ) :   0.9812 B( 39-C , 68-H ) :   0.9809 B( 39-C , 69-H ) :   0.9773 


-------
TIMINGS
-------

Total SCF time: 0 days 0 hours 8 min 25 sec 

Total time                  ....     505.458 sec
Sum of individual times     ....     492.659 sec  ( 97.5%)

SCF preparation             ....       1.040 sec  (  0.2%)
Fock matrix formation       ....     440.319 sec  ( 87.1%)
  Startup                   ....       0.309 sec  (  0.1% of F)
  Split-RI-J                ....      26.340 sec  (  6.0% of F)
  Chain of spheres X        ....     401.924 sec  ( 91.3% of F)
  XC integration            ....      23.346 sec  (  5.3% of F)
    Basis function eval.    ....       5.567 sec  ( 23.8% of XC)
    Density eval.           ....       5.605 sec  ( 24.0% of XC)
    XC-Functional eval.     ....       0.326 sec  (  1.4% of XC)
    XC-Potential eval.      ....       8.175 sec  ( 35.0% of XC)
Diagonalization             ....       0.000 sec  (  0.0%)
Density matrix formation    ....       2.685 sec  (  0.5%)
Total Energy calculation    ....       1.424 sec  (  0.3%)
Population analysis         ....       0.624 sec  (  0.1%)
Orbital Transformation      ....       3.383 sec  (  0.7%)
Orbital Orthonormalization  ....       0.000 sec  (  0.0%)
DIIS solution               ....      32.788 sec  (  6.5%)
SOSCF solution              ....      10.396 sec  (  2.1%)
Finished LeanSCF after 505.5 sec

Maximum memory used throughout the entire LEANSCF-calculation: 244.6 MB


-------------------------------------------------------------------------------
                          DFT DISPERSION CORRECTION                            
                                                                               
                                DFTD4 V3.4.0                                   
-------------------------------------------------------------------------------
The WB97X-D3BJ functional is recognized
Active option DFTDOPT                   ...         5   

-------------------------   ----------------
Dispersion correction           -0.202407965
-------------------------   ----------------


-------------------------   --------------------
FINAL SINGLE POINT ENERGY     -1725.633407945558
-------------------------   --------------------



           ************************************************************
           *        Program running with 8 parallel MPI-processes     *
           *              working on a common directory               *
           ************************************************************

------------------------------------------------------------------------------
                              ORCA PROPERTY CALCULATIONS
------------------------------------------------------------------------------

GBWName                                 ... pdi_terminal_functionalized_sp.gbw
Number of atoms                         ...     70
Number of basis functions               ...   1420
Max core memory                         ...   3000 MB

Electric properties:
Dipole moment                           ... YES
Quadrupole moment                       ...  NO
Static polarizability (Dipole/Dipole)   ...  NO
Static polarizability (Dipole/Quad.)    ...  NO
Static polarizability (Quad./Quad.)     ...  NO
Static polarizability (Velocity)        ...  NO
Static hyperpolarizability              ...  NO

Atomic electric properties:
Dipole moment                           ...  NO
Quadrupole moment                       ...  NO
Static polarizability                   ...  NO

Choice of electric origin               ... Center of mass
Position of electric origin             ...    -0.008301    -0.023496    -0.361980

General magnetic properties:
Magnetizability                         ...  NO

EPR properties:
g-Tensor (aka g-matrix)                 ...  NO
Zero-Field splitting spin-orbit         ...  NO
Zero-field splitting spin-spin          ...  NO
Hyperfine couplings                     ...  NO (   0 nuclei)
Quadrupole couplings                    ...  NO (   0 nuclei)
Contact density                         ...  NO (   0 nuclei)

NMR properties:
Chemical shifts                         ...  NO (   0 nuclei)
Spin-rotation constants                 ...  NO (   0 nuclei)
Spin-spin couplings                     ...  NO (   0 nuclei,    0 pairs)

Choice of magnetic origin               ... GIAO
Position of magnetic origin             ...     0.000000     0.000000     0.000000

Properties with geometric perturbations:
SCF Hessian                             ...  NO
IR spectrum                             ...  NO
VCD spectrum                            ...  NO
X-ray spectroscopy properties:
SCF XES/XAS/RIXS spectra                ...  NO

SCF SOC stabilization energy            ...  NO
Diagonal Born-Oppenheimer correction    ...  NO

-------------
DIPOLE MOMENT
-------------

Method             : SCF
Type of density    : Electron Density
Multiplicity       :   1
Irrep              :   0
Energy             : -1725.4309999800925652 Eh
Basis              : AO
                                X                 Y                 Z
Electronic contribution:      0.000210500      -0.001659817       0.050879331
Nuclear contribution   :     -0.000128566       0.001621387      -0.054362905
                        -----------------------------------------
Total Dipole Moment    :      0.000081935      -0.000038430      -0.003483574
                        -----------------------------------------
Magnitude (a.u.)       :      0.003484750
Magnitude (Debye)      :      0.008857530



--------------------
Rotational spectrum 
--------------------
 
Rotational constants in cm-1:             0.009650             0.001204             0.001144 
Rotational constants in MHz :           289.304779            36.087406            34.296633 

Dipole components along the rotational axes: 
x,y,z [a.u.] :     0.000098    -0.000051     0.003483 
x,y,z [Debye]:     0.000250    -0.000130     0.008853 

 

Dipole moment calculation done in   0.0 sec 

Maximum memory used throughout the entire PROP-calculation: 154.3 MB

--------------------------------
SUGGESTED CITATIONS FOR THIS RUN
--------------------------------

Below you find a list of papers that are relevant to this ORCA run
We neither can nor want to force you to cite these papers, but we appreciate if you do
You receive ORCA, which is the product of decades of hard work by many enthusiastic individuals, for free
The only thing we kindly ask in return is that you cite our papers,
We deeply appreciate it, if you show your appreciation for ORCA by not just citing the generic ORCA reference.

Please note that relegating all ORCA citations to the supporting information does *not* help us.
SI sections are not indexed - citations you put there will not count into any citation statistics
But we need these citations in order to attract the funding resources that allow us to do what we are doing

Therefore, if you are a happy ORCA user, please consider citing a few of the papers listed below in the main body of your paper

In addition to the list printed below, the program has created the file pdi_terminal_functionalized_sp.bibtex that contains the list in bibtex format
You can import this file easily into all common literature databanks and citation aid programs

It goes without saying that in many instances, there are alternative algorithms to achieve similar
results as the ones you have gotten from ORCA. It is, of course, also the case that in some instances
ORCA just re-implements algorithms worked out by others. We are fully aware of that and we are also
fully appreciative of our colleagues work. Hence this citation list should not be read as indicating
that the listed papers, which are focused on our own work, are the only ones worth citing. It simply
meant to make it easier for users to cite ORCA specific papers. It is not a substitute for doing your
own literature research and citing the relevant literature in a scientifically appropriate manner.

List of essential papers. We consider these as the minimum necessary citations

  1. Neese, F.
     Software update: the ORCA program system, version 6.0
     WIRES Comput. Molec. Sci. 2025 15(1), e70019
     doi.org/10.1002/wcms.70019

List of papers to cite with high priority. The work reported in these papers was absolutely
necessary for this run to complete.
Our perspective: the developers of density functionals and basis sets usually get cited in chemistry papers
Good! But without the algorithms to do something with them, the functionals or basis sets would not do anything.
Hence, in our opinion, the algorithm design and method developments papers are equally worthy of getting cited

  1. Neese, F.
     An improvement of the resolution of the identity approximation for the formation of the Coulomb matrix
     J. Comp. Chem. 2003 24(14), 1740-1747
     doi.org/10.1002/jcc.10318
  2. Neese, F.; Wennmohs, F.; Hansen, A.; Becker, U.
     Efficient, approximate and parallel Hartree-Fock and hybrid DFT calculations. A 'chain-of-spheres' algorithm for the Hartree-Fock exchange
     Chem. Phys. 2009 356(1-3), 98-109
     doi.org/10.1016/j.chemphys.2008.10.036
  3. Caldeweyher, E.; Bannwarth, C.; Grimme, S.
     Extension of the D3 dispersion coefficient model
     J. Chem. Phys. 2017 147 , 034112
     doi.org/10.1063/1.4993215
  4. Caldeweyher, E.; Ehlert, S.; Hansen, A.; Neugebauer, H.; Spicher, S.; Bannwarth, C.; Grimme, S.
     A generally applicable atomic-charge dependent London dispersion correction
     J. Chem. Phys. 2019 150 , 154122
     doi.org/10.1063/1.5090222
  5. Helmich-Paris, B.; de Souza, B.; Neese, F.; Izsák, R.
     An improved chain of spheres for exchange algorithm
     J. Chem. Phys. 2021 155(10), 104109
     doi.org/10.1063/5.0058766
  6. Neese, F.
     The SHARK Integral Generation and Digestion System
     J. Comp. Chem. 2022 44(3), 381
     doi.org/10.1002/jcc.26942

List of suggested additional citations. These are papers that are important in the 'surrounding' of 
of this run, or papers that preceded the highly important papers. If you like your results we are grateful for a citation.

  1. Izsak, R.; Neese, F.
     An overlap fitted chain of spheres exchange method
     J. Chem. Phys. 2011 135 , 144105
     doi.org/10.1063/1.3646921
  2. Izsak, R.; Hansen, A.; Neese, F.
     The resolution of identity and chain of spheres approximations for the LPNO-CCSD singles Fock term
     Molec. Phys. 2012 110 , 2413-2417
     doi.org/10.1080/00268976.2012.687466
  3. Neese, F.
     The ORCA program system
     WIRES Comput. Molec. Sci. 2012 2(1), 73-78
     doi.org/10.1002/wcms.81
  4. Izsak, R.; Neese, F.; Klopper, W.
     Robust fitting techniques in the chain of spheres approximation to the Fock exchange: The role of the complementary space
     J. Chem. Phys. 2013 139 , 
     doi.org/10.1063/1.4819264
  5. Neese, F.
     Software update: the ORCA program system, version 4.0
     WIRES Comput. Molec. Sci. 2018 8(1), 1-6
     doi.org/10.1002/wcms.1327
  6. Neese, F.; Wennmohs, F.; Becker, U.; Riplinger, C.
     The ORCA quantum chemistry program package
     J. Chem. Phys. 2020 152(22), 224108
     doi.org/10.1063/5.0004608
  7. Neese, F.
     Software update: The ORCA program system—Version 5.0
     WIRES Comput. Molec. Sci. 2022 12(1), e1606
     doi.org/10.1002/wcms.1606

List of optional additional citations

  1. Neese, F.
     Approximate second-order SCF convergence for spin unrestricted wavefunctions
     Chem. Phys. Lett. 2000 325(1-3), 93-98
     doi.org/10.1016/s0009-2614(00)00662-x

Timings for individual modules:

Sum of individual times          ...      526.843 sec (=   8.781 min)
Startup calculation              ...       13.177 sec (=   0.220 min)   2.5 %
SCF iterations                   ...      512.991 sec (=   8.550 min)  97.4 %
Property calculations            ...        0.675 sec (=   0.011 min)   0.1 %
                             ****ORCA TERMINATED NORMALLY****
TOTAL RUN TIME: 0 days 0 hours 8 minutes 47 seconds 457 msec
